DPPC sim
 2304
    1DPPC   NC3    1   7.682   2.180   4.470
    1DPPC   PO4    2   7.679   1.950   4.655
    1DPPC   GL1    3   7.482   1.787   4.926
    1DPPC   GL2    4   7.700   1.666   5.040
    1DPPC   C1A    5   7.249   1.641   5.225
    1DPPC   C2A    6   7.194   1.429   5.410
    1DPPC   C3A    7   7.066   1.219   5.560
    1DPPC   C4A    8   6.958   1.006   5.808
    1DPPC   C1B    9   7.735   1.378   5.195
    1DPPC   C2B   10   7.670   1.326   5.517
    1DPPC   C3B   11   7.538   1.062   5.650
    1DPPC   C4B   12   7.436   0.927   5.967
    2DPPC   NC3   13   4.686   3.146   4.002
    2DPPC   PO4   14   4.475   3.266   3.835
    2DPPC   GL1   15   4.122   3.223   3.721
    2DPPC   GL2   16   4.159   3.366   3.489
    2DPPC   C1A   17   3.742   3.141   3.607
    2DPPC   C2A   18   3.503   3.227   3.473
    2DPPC   C3A   19   3.231   3.297   3.409
    2DPPC   C4A   20   2.925   3.339   3.256
    2DPPC   C1B   21   3.957   3.561   3.318
    2DPPC   C2B   22   3.734   3.457   3.094
    2DPPC   C3B   23   3.438   3.576   3.043
    2DPPC   C4B   24   3.147   3.529   2.838
    3DPPC   NC3   25   5.157   6.801   6.914
    3DPPC   PO4   26   4.909   6.944   6.844
    3DPPC   GL1   27   4.542   6.956   6.909
    3DPPC   GL2   28   4.482   7.072   6.668
    3DPPC   C1A   29   4.145   6.933   6.994
    3DPPC   C2A   30   3.884   7.050   6.971
    3DPPC   C3A   31   3.625   7.161   7.027
    3DPPC   C4A   32   3.291   7.245   7.025
    3DPPC   C1B   33   4.249   7.287   6.580
    3DPPC   C2B   34   3.936   7.207   6.499
    3DPPC   C3B   35   3.668   7.372   6.570
    3DPPC   C4B   36   3.311   7.361   6.528
    4DPPC   NC3   37   3.509   4.847   3.143
    4DPPC   PO4   38   3.572   4.862   2.855
    4DPPC   GL1   39   3.533   5.072   2.549
    4DPPC   GL2   40   3.555   4.861   2.376
    4DPPC   C1A   41   3.462   5.319   2.235
    4DPPC   C2A   42   3.514   5.385   1.961
    4DPPC   C3A   43   3.585   5.522   1.718
    4DPPC   C4A   44   3.598   5.644   1.396
    4DPPC   C1B   45   3.683   4.838   2.074
    4DPPC   C2B   46   3.524   4.915   1.793
    4DPPC   C3B   47   3.648   5.057   1.531
    4DPPC   C4B   48   3.557   5.173   1.203
    5DPPC   NC3   49   4.318   6.651   3.993
    5DPPC   PO4   50   4.300   6.647   4.288
    5DPPC   GL1   51   4.077   6.729   4.575
    5DPPC   GL2   52   4.284   6.762   4.752
    5DPPC   C1A   53   3.815   6.840   4.864
    5DPPC   C2A   54   3.744   6.841   5.143
    5DPPC   C3A   55   3.606   6.809   5.393
    5DPPC   C4A   56   3.475   6.851   5.709
    5DPPC   C1B   57   4.307   6.701   5.075
    5DPPC   C2B   58   4.208   6.908   5.316
    5DPPC   C3B   59   4.068   6.828   5.596
    5DPPC   C4B   60   3.934   6.973   5.896
    6DPPC   NC3   61   1.215   4.585   5.427
    6DPPC   PO4   62   1.354   4.547   5.685
    6DPPC   GL1   63   1.330   4.619   6.050
    6DPPC   GL2   64   1.602   4.607   6.090
    6DPPC   C1A   65   1.280   4.723   6.439
    6DPPC   C2A   66   1.366   4.698   6.712
    6DPPC   C3A   67   1.377   4.651   6.996
    6DPPC   C4A   68   1.439   4.670   7.334
    6DPPC   C1B   69   1.780   4.506   6.347
    6DPPC   C2B   70   1.856   4.691   6.612
    6DPPC   C3B   71   1.873   4.595   6.920
    6DPPC   C4B   72   1.941   4.717   7.251
    7DPPC   NC3   73   6.647   5.536   6.494
    7DPPC   PO4   74   6.831   5.573   6.266
    7DPPC   GL1   75   6.963   5.408   5.958
    7DPPC   GL2   76   7.198   5.550   5.959
    7DPPC   C1A   77   7.094   5.197   5.638
    7DPPC   C2A   78   7.245   5.193   5.394
    7DPPC   C3A   79   7.327   5.163   5.119
    7DPPC   C4A   80   7.498   5.093   4.829
    7DPPC   C1B   81   7.388   5.660   5.714
    7DPPC   C2B   82   7.619   5.480   5.557
    7DPPC   C3B   83   7.693   5.489   5.242
    7DPPC   C4B   84   7.912   5.340   5.000
    8DPPC   NC3   85   5.134   3.290   3.047
    8DPPC   PO4   86   5.007   3.390   2.800
    8DPPC   GL1   87   4.694   3.542   2.664
    8DPPC   GL2   88   4.736   3.448   2.410
    8DPPC   C1A   89   4.337   3.694   2.548
    8DPPC   C2A   90   4.179   3.816   2.342
    8DPPC   C3A   91   4.010   3.994   2.191
    8DPPC   C4A   92   3.771   4.130   1.984
    8DPPC   C1B   93   4.661   3.575   2.116
    8DPPC   C2B   94   4.366   3.547   1.965
    8DPPC   C3B   95   4.215   3.771   1.787
    8DPPC   C4B   96   3.914   3.826   1.600
    9DPPC   NC3   97   1.296   0.221   1.129
    9DPPC   PO4   98   1.226   0.503   1.178
    9DPPC   GL1   99   1.120   0.819   1.011
    9DPPC   GL2  100   1.223   0.981   1.206
    9DPPC   C1A  101   1.017   1.147   0.796
    9DPPC   C2A  102   0.926   1.420   0.795
    9DPPC   C3A  103   0.777   1.662   0.748
    9DPPC   C4A  104   0.682   1.986   0.683
    9DPPC   C1B  105   1.123   1.271   1.325
    9DPPC   C2B  106   1.194   1.567   1.190
    9DPPC   C3B  107   1.000   1.824   1.171
    9DPPC   C4B  108   0.991   2.163   1.050
   10DPPC   NC3  109   3.924   1.689   2.579
   10DPPC   PO4  110   4.164   1.740   2.742
   10DPPC   GL1  111   4.331   1.655   3.065
   10DPPC   GL2  112   4.475   1.888   3.075
   10DPPC   C1A  113   4.479   1.550   3.428
   10DPPC   C2A  114   4.699   1.554   3.612
   10DPPC   C3A  115   4.909   1.480   3.795
   10DPPC   C4A  116   5.130   1.461   4.058
   10DPPC   C1B  117   4.775   1.954   3.193
   10DPPC   C2B  118   4.844   2.022   3.512
   10DPPC   C3B  119   5.105   1.930   3.678
   10DPPC   C4B  120   5.254   1.953   4.005
   11DPPC   NC3  121   2.358   0.721   0.294
   11DPPC   PO4  122   2.481   0.813   0.545
   11DPPC   GL1  123   2.803   0.920   0.699
   11DPPC   GL2  124   2.729   0.850   0.954
   11DPPC   C1A  125   3.172   1.020   0.837
   11DPPC   C2A  126   3.332   1.127   1.051
   11DPPC   C3A  127   3.516   1.284   1.206
   11DPPC   C4A  128   3.758   1.392   1.426
   11DPPC   C1B  129   2.801   0.980   1.247
   11DPPC   C2B  130   3.075   0.913   1.422
   11DPPC   C3B  131   3.248   1.120   1.601
   11DPPC   C4B  132   3.539   1.137   1.811
   12DPPC   NC3  133   0.662   7.082   5.377
   12DPPC   PO4  134   0.810   7.071   5.122
   12DPPC   GL1  135   0.949   7.282   4.847
   12DPPC   GL2  136   0.939   7.081   4.660
   12DPPC   C1A  137   1.078   7.538   4.560
   12DPPC   C2A  138   1.231   7.580   4.320
   12DPPC   C3A  139   1.419   7.677   4.126
   12DPPC   C4A  140   1.574   7.786   3.838
   12DPPC   C1B  141   1.133   7.010   4.404
   12DPPC   C2B  142   1.108   7.147   4.103
   12DPPC   C3B  143   1.350   7.228   3.905
   12DPPC   C4B  144   1.415   7.374   3.582
   13DPPC   NC3  145   2.786   3.369   5.780
   13DPPC   PO4  146   2.766   3.512   6.037
   13DPPC   GL1  147   2.896   3.518   6.387
   13DPPC   GL2  148   2.673   3.642   6.488
   13DPPC   C1A  149   3.048   3.490   6.762
   13DPPC   C2A  150   3.076   3.605   7.024
   13DPPC   C3A  151   3.181   3.712   7.269
   13DPPC   C4A  152   3.241   3.793   7.598
   13DPPC   C1B  153   2.636   3.858   6.734
   13DPPC   C2B  154   2.609   3.779   7.055
   13DPPC   C3B  155   2.732   3.939   7.308
   13DPPC   C4B  156   2.753   3.927   7.666
   14DPPC   NC3  157   5.341   1.217   0.009
   14DPPC   PO4  158   5.225   1.020   0.196
   14DPPC   GL1  159   5.209   0.656   0.274
   14DPPC   GL2  160   4.967   0.674   0.402
   14DPPC   C1A  161   5.204   0.253   0.325
   14DPPC   C2A  162   5.130   0.029   0.488
   14DPPC   C3A  163   5.134  -0.212   0.645
   14DPPC   C4A  164   5.063  -0.517   0.789
   14DPPC   C1B  165   4.841   0.508   0.657
   14DPPC   C2B  166   4.690   0.213   0.637
   14DPPC   C3B  167   4.708  -0.031   0.848
   14DPPC   C4B  168   4.589  -0.365   0.904
   15DPPC   NC3  169   0.105   1.686   5.594
   15DPPC   PO4  170   0.350   1.834   5.522
   15DPPC   GL1  171   0.603   2.077   5.651
   15DPPC   GL2  172   0.670   2.170   5.402
   15DPPC   C1A  173   0.852   2.350   5.818
   15DPPC   C2A  174   1.096   2.500   5.801
   15DPPC   C3A  175   1.354   2.616   5.855
   15DPPC   C4A  176   1.623   2.828   5.886
   15DPPC   C1B  177   0.955   2.278   5.279
   15DPPC   C2B  178   1.071   2.588   5.310
   15DPPC   C3B  179   1.378   2.679   5.355
   15DPPC   C4B  180   1.582   2.971   5.398
   16DPPC   NC3  181  -0.344   8.208   6.203
   16DPPC   PO4  182  -0.285   7.929   6.126
   16DPPC   GL1  183  -0.020   7.667   6.131
   16DPPC   GL2  184  -0.121   7.532   5.914
   16DPPC   C1A  185   0.293   7.409   6.143
   16DPPC   C2A  186   0.391   7.142   6.103
   16DPPC   C3A  187   0.512   6.884   6.139
   16DPPC   C4A  188   0.688   6.590   6.100
   16DPPC   C1B  189  -0.125   7.212   5.838
   16DPPC   C2B  190   0.124   7.048   5.692
   16DPPC   C3B  191   0.219   6.745   5.751
   16DPPC   C4B  192   0.463   6.501   5.650
   17DPPC   NC3  193   0.690   3.488   5.844
   17DPPC   PO4  194   0.543   3.484   6.100
   17DPPC   GL1  195   0.558   3.360   6.452
   17DPPC   GL2  196   0.285   3.359   6.484
   17DPPC   C1A  197   0.600   3.200   6.823
   17DPPC   C2A  198   0.505   3.183   7.093
   17DPPC   C3A  199   0.485   3.186   7.380
   17DPPC   C4A  200   0.413   3.116   7.709
   17DPPC   C1B  201   0.096   3.417   6.747
   17DPPC   C2B  202   0.018   3.192   6.979
   17DPPC   C3B  203  -0.010   3.242   7.297
   17DPPC   C4B  204  -0.084   3.070   7.604
   18DPPC   NC3  205   4.666   6.987   3.572
   18DPPC   PO4  206   4.795   6.804   3.764
   18DPPC   GL1  207   4.852   6.744   4.128
   18DPPC   GL2  208   5.083   6.602   4.089
   18DPPC   C1A  209   4.904   6.715   4.529
   18DPPC   C2A  210   4.997   6.560   4.753
   18DPPC   C3A  211   5.014   6.418   5.002
   18DPPC   C4A  212   5.115   6.286   5.304
   18DPPC   C1B  213   5.214   6.349   4.254
   18DPPC   C2B  214   5.402   6.376   4.527
   18DPPC   C3B  215   5.403   6.180   4.783
   18DPPC   C4B  216   5.559   6.134   5.103
   19DPPC   NC3  217   3.069   7.989   3.745
   19DPPC   PO4  218   3.005   7.825   3.507
   19DPPC   GL1  219   2.904   7.484   3.397
   19DPPC   GL2  220   3.012   7.511   3.147
   19DPPC   C1A  221   2.806   7.099   3.311
   19DPPC   C2A  222   2.721   6.907   3.115
   19DPPC   C3A  223   2.578   6.702   2.973
   19DPPC   C4A  224   2.489   6.428   2.785
   19DPPC   C1B  225   2.920   7.391   2.855
   19DPPC   C2B  226   2.996   7.088   2.740
   19DPPC   C3B  227   2.807   6.893   2.565
   19DPPC   C4B  228   2.804   6.569   2.409
   20DPPC   NC3  229   5.574   2.707   4.933
   20DPPC   PO4  230   5.598   2.859   4.681
   20DPPC   GL1  231   5.413   3.086   4.450
   20DPPC   GL2  232   5.562   3.016   4.230
   20DPPC   C1A  233   5.181   3.320   4.214
   20DPPC   C2A  234   5.161   3.495   3.987
   20DPPC   C3A  235   5.111   3.720   3.815
   20DPPC   C4A  236   5.023   3.925   3.552
   20DPPC   C1B  237   5.658   3.189   3.967
   20DPPC   C2B  238   5.474   3.239   3.695
   20DPPC   C3B  239   5.459   3.508   3.516
   20DPPC   C4B  240   5.298   3.645   3.226
   21DPPC   NC3  241  -0.691   2.131   2.548
   21DPPC   PO4  242  -0.470   1.962   2.449
   21DPPC   GL1  243  -0.140   1.816   2.543
   21DPPC   GL2  244  -0.053   1.796   2.283
   21DPPC   C1A  245   0.221   1.683   2.672
   21DPPC   C2A  246   0.449   1.514   2.627
   21DPPC   C3A  247   0.657   1.317   2.656
   21DPPC   C4A  248   0.957   1.146   2.653
   21DPPC   C1B  249   0.142   1.577   2.134
   21DPPC   C2B  250   0.474   1.586   2.134
   21DPPC   C3B  251   0.677   1.334   2.151
   21DPPC   C4B  252   1.027   1.254   2.159
   22DPPC   NC3  253   3.983   8.264   4.068
   22DPPC   PO4  254   4.085   8.056   3.885
   22DPPC   GL1  255   4.183   7.697   3.865
   22DPPC   GL2  256   4.354   7.735   3.653
   22DPPC   C1A  257   4.293   7.307   3.881
   22DPPC   C2A  258   4.374   7.070   3.740
   22DPPC   C3A  259   4.392   6.802   3.637
   22DPPC   C4A  260   4.501   6.494   3.527
   22DPPC   C1B  261   4.433   7.541   3.399
   22DPPC   C2B  262   4.665   7.302   3.406
   22DPPC   C3B  263   4.653   7.015   3.260
   22DPPC   C4B  264   4.842   6.712   3.216
   23DPPC   NC3  265   5.720   5.084   1.736
   23DPPC   PO4  266   5.708   4.790   1.738
   23DPPC   GL1  267   5.910   4.482   1.802
   23DPPC   GL2  268   5.757   4.324   1.638
   23DPPC   C1A  269   6.159   4.169   1.868
   23DPPC   C2A  270   6.192   3.886   1.899
   23DPPC   C3A  271   6.259   3.625   2.000
   23DPPC   C4A  272   6.362   3.298   2.035
   23DPPC   C1B  273   5.675   4.006   1.655
   23DPPC   C2B  274   5.863   3.754   1.547
   23DPPC   C3B  275   5.899   3.464   1.685
   23DPPC   C4B  276   6.070   3.151   1.643
   24DPPC   NC3  277   1.910   1.703   1.683
   24DPPC   PO4  278   1.903   1.962   1.540
   24DPPC   GL1  279   1.845   2.327   1.586
   24DPPC   GL2  280   1.769   2.368   1.326
   24DPPC   C1A  281   1.765   2.717   1.668
   24DPPC   C2A  282   1.763   2.989   1.578
   24DPPC   C3A  283   1.805   3.273   1.554
   24DPPC   C4A  284   1.769   3.611   1.502
   24DPPC   C1B  285   1.808   2.625   1.124
   24DPPC   C2B  286   1.610   2.891   1.113
   24DPPC   C3B  287   1.698   3.199   1.066
   24DPPC   C4B  288   1.562   3.531   1.042
   25DPPC   NC3  289   1.838   3.497   3.150
   25DPPC   PO4  290   1.792   3.688   2.929
   25DPPC   GL1  291   1.797   3.722   2.558
   25DPPC   GL2  292   1.842   3.993   2.563
   25DPPC   C1A  293   1.822   3.729   2.153
   25DPPC   C2A  294   1.775   3.870   1.908
   25DPPC   C3A  295   1.687   3.944   1.644
   25DPPC   C4A  296   1.665   4.066   1.322
   25DPPC   C1B  297   1.746   4.235   2.363
   25DPPC   C2B  298   1.899   4.322   2.081
   25DPPC   C3B  299   1.760   4.417   1.805
   25DPPC   C4B  300   1.840   4.522   1.471
   26DPPC   NC3  301   4.981   2.148   5.454
   26DPPC   PO4  302   4.820   1.992   5.646
   26DPPC   GL1  303   4.584   1.705   5.676
   26DPPC   GL2  304   4.465   1.800   5.904
   26DPPC   C1A  305   4.322   1.395   5.671
   26DPPC   C2A  306   4.165   1.206   5.819
   26DPPC   C3A  307   4.048   0.965   5.922
   26DPPC   C4A  308   3.832   0.724   6.042
   26DPPC   C1B  309   4.337   1.645   6.164
   26DPPC   C2B  310   4.029   1.522   6.181
   26DPPC   C3B  311   3.934   1.249   6.324
   26DPPC   C4B  312   3.642   1.049   6.387
   27DPPC   NC3  313   5.809   5.102   5.831
   27DPPC   PO4  314   5.562   5.216   5.718
   27DPPC   GL1  315   5.367   5.253   5.402
   27DPPC   GL2  316   5.240   5.483   5.484
   27DPPC   C1A  317   5.185   5.285   5.041
   27DPPC   C2A  318   4.954   5.363   4.890
   27DPPC   C3A  319   4.726   5.364   4.713
   27DPPC   C4A  320   4.486   5.447   4.481
   27DPPC   C1B  321   4.939   5.600   5.423
   27DPPC   C2B  322   4.853   5.774   5.154
   27DPPC   C3B  323   4.574   5.758   4.991
   27DPPC   C4B  324   4.404   5.897   4.707
   28DPPC   NC3  325   6.198   4.895   1.999
   28DPPC   PO4  326   5.995   5.087   2.095
   28DPPC   GL1  327   5.715   5.307   1.983
   28DPPC   GL2  328   5.740   5.480   2.195
   28DPPC   C1A  329   5.425   5.544   1.827
   28DPPC   C2A  330   5.204   5.721   1.872
   28DPPC   C3A  331   4.944   5.845   1.870
   28DPPC   C4A  332   4.682   6.069   1.861
   28DPPC   C1B  333   5.517   5.655   2.361
   28DPPC   C2B  334   5.400   5.952   2.269
   28DPPC   C3B  335   5.098   6.061   2.300
   28DPPC   C4B  336   4.893   6.349   2.232
   29DPPC   NC3  337   4.424   2.640   5.500
   29DPPC   PO4  338   4.335   2.429   5.686
   29DPPC   GL1  339   4.122   2.366   5.986
   29DPPC   GL2  340   4.266   2.146   6.066
   29DPPC   C1A  341   3.892   2.334   6.319
   29DPPC   C2A  342   3.766   2.163   6.513
   29DPPC   C3A  343   3.574   2.033   6.683
   29DPPC   C4A  344   3.410   1.885   6.947
   29DPPC   C1B  345   4.175   1.869   6.217
   29DPPC   C2B  346   4.139   1.833   6.546
   29DPPC   C3B  347   3.914   1.660   6.701
   29DPPC   C4B  348   3.804   1.571   7.031
   30DPPC   NC3  349   0.402   5.376   8.434
   30DPPC   PO4  350   0.328   5.267   8.169
   30DPPC   GL1  351   0.436   5.028   7.903
   30DPPC   GL2  352   0.304   5.161   7.703
   30DPPC   C1A  353   0.587   4.770   7.630
   30DPPC   C2A  354   0.550   4.624   7.385
   30DPPC   C3A  355   0.530   4.416   7.187
   30DPPC   C4A  356   0.549   4.228   6.899
   30DPPC   C1B  357   0.155   5.053   7.430
   30DPPC   C2B  358   0.309   4.988   7.142
   30DPPC   C3B  359   0.244   4.748   6.936
   30DPPC   C4B  360   0.351   4.608   6.623
   31DPPC   NC3  361   5.497   7.492   2.451
   31DPPC   PO4  362   5.676   7.266   2.387
   31DPPC   GL1  363   5.881   7.114   2.115
   31DPPC   GL2  364   5.869   6.861   2.221
   31DPPC   C1A  365   6.083   6.968   1.795
   31DPPC   C2A  366   6.273   6.779   1.691
   31DPPC   C3A  367   6.499   6.657   1.562
   31DPPC   C4A  368   6.707   6.451   1.379
   31DPPC   C1B  369   6.086   6.613   2.220
   31DPPC   C2B  370   6.124   6.394   1.973
   31DPPC   C3B  371   6.401   6.266   1.866
   31DPPC   C4B  372   6.530   6.038   1.620
   32DPPC   NC3  373   1.460   2.227   2.284
   32DPPC   PO4  374   1.523   1.971   2.416
   32DPPC   GL1  375   1.458   1.604   2.404
   32DPPC   GL2  376   1.510   1.566   2.671
   32DPPC   C1A  377   1.357   1.212   2.370
   32DPPC   C2A  378   1.401   0.941   2.453
   32DPPC   C3A  379   1.455   0.658   2.458
   32DPPC   C4A  380   1.454   0.320   2.523
   32DPPC   C1B  381   1.642   1.313   2.834
   32DPPC   C2B  382   1.476   1.044   2.936
   32DPPC   C3B  383   1.582   0.738   2.940
   32DPPC   C4B  384   1.478   0.405   3.026
   33DPPC   NC3  385   0.954   4.826   1.596
   33DPPC   PO4  386   1.118   4.846   1.352
   33DPPC   GL1  387   1.446   4.967   1.221
   33DPPC   GL2  388   1.355   4.998   0.964
   33DPPC   C1A  389   1.805   5.119   1.109
   33DPPC   C2A  390   2.006   5.146   0.906
   33DPPC   C3A  391   2.254   5.144   0.760
   33DPPC   C4A  392   2.522   5.221   0.557
   33DPPC   C1B  393   1.504   4.961   0.673
   33DPPC   C2B  394   1.689   5.192   0.523
   33DPPC   C3B  395   1.959   5.145   0.351
   33DPPC   C4B  396   2.210   5.323   0.166
   34DPPC   NC3  397   1.332   6.999   3.830
   34DPPC   PO4  398   1.614   7.034   3.909
   34DPPC   GL1  399   1.930   6.849   3.982
   34DPPC   GL2  400   2.031   7.046   4.144
   34DPPC   C1A  401   2.252   6.617   4.067
   34DPPC   C2A  402   2.533   6.602   4.125
   34DPPC   C3A  403   2.813   6.536   4.120
   34DPPC   C4A  404   3.137   6.454   4.203
   34DPPC   C1B  405   2.339   7.148   4.198
   34DPPC   C2B  406   2.551   7.009   4.413
   34DPPC   C3B  407   2.870   6.968   4.375
   34DPPC   C4B  408   3.159   6.836   4.541
   35DPPC   NC3  409   1.017   1.541   5.710
   35DPPC   PO4  410   1.042   1.644   5.435
   35DPPC   GL1  411   1.250   1.861   5.214
   35DPPC   GL2  412   1.045   1.917   5.041
   35DPPC   C1A  413   1.491   2.113   5.006
   35DPPC   C2A  414   1.566   2.224   4.752
   35DPPC   C3A  415   1.713   2.309   4.519
   35DPPC   C4A  416   1.839   2.483   4.251
   35DPPC   C1B  417   1.041   1.970   4.717
   35DPPC   C2B  418   1.102   2.263   4.571
   35DPPC   C3B  419   1.261   2.314   4.294
   35DPPC   C4B  420   1.369   2.578   4.075
   36DPPC   NC3  421   5.683   2.856   6.237
   36DPPC   PO4  422   5.412   2.964   6.282
   36DPPC   GL1  423   5.160   3.205   6.150
   36DPPC   GL2  424   5.036   3.239   6.393
   36DPPC   C1A  425   4.913   3.483   5.988
   36DPPC   C2A  426   4.653   3.604   5.981
   36DPPC   C3A  427   4.397   3.706   5.897
   36DPPC   C4A  428   4.113   3.895   5.850
   36DPPC   C1B  429   4.722   3.294   6.472
   36DPPC   C2B  430   4.575   3.593   6.474
   36DPPC   C3B  431   4.273   3.663   6.385
   36DPPC   C4B  432   4.045   3.939   6.354
   37DPPC   NC3  433  -0.050   7.911   1.780
   37DPPC   PO4  434   0.079   7.665   1.679
   37DPPC   GL1  435   0.014   7.347   1.495
   37DPPC   GL2  436   0.225   7.214   1.610
   37DPPC   C1A  437  -0.093   7.006   1.302
   37DPPC   C2A  438  -0.012   6.763   1.173
   37DPPC   C3A  439   0.026   6.550   0.984
   37DPPC   C4A  440   0.060   6.244   0.830
   37DPPC   C1B  441   0.426   6.981   1.493
   37DPPC   C2B  442   0.359   6.655   1.490
   37DPPC   C3B  443   0.436   6.442   1.259
   37DPPC   C4B  444   0.405   6.094   1.175
   38DPPC   NC3  445   3.755   6.704   3.500
   38DPPC   PO4  446   3.503   6.632   3.364
   38DPPC   GL1  447   3.257   6.356   3.316
   38DPPC   GL2  448   3.170   6.448   3.073
   38DPPC   C1A  449   3.015   6.032   3.277
   38DPPC   C2A  450   2.768   5.922   3.181
   38DPPC   C3A  451   2.513   5.790   3.161
   38DPPC   C4A  452   2.243   5.601   3.062
   38DPPC   C1B  453   2.875   6.438   2.927
   38DPPC   C2B  454   2.757   6.180   2.753
   38DPPC   C3B  455   2.453   6.072   2.746
   38DPPC   C4B  456   2.247   5.817   2.599
   39DPPC   NC3  457   0.730   6.191   3.436
   39DPPC   PO4  458   0.973   6.028   3.399
   39DPPC   GL1  459   1.314   5.964   3.536
   39DPPC   GL2  460   1.414   5.872   3.298
   39DPPC   C1A  461   1.682   5.927   3.702
   39DPPC   C2A  462   1.930   5.783   3.717
   39DPPC   C3A  463   2.159   5.634   3.809
   39DPPC   C4A  464   2.476   5.511   3.863
   39DPPC   C1B  465   1.640   5.642   3.230
   39DPPC   C2B  466   1.969   5.692   3.227
   39DPPC   C3B  467   2.198   5.488   3.327
   39DPPC   C4B  468   2.555   5.459   3.362
   40DPPC   NC3  469   3.028   3.892   4.523
   40DPPC   PO4  470   3.174   3.922   4.778
   40DPPC   GL1  471   3.344   4.171   4.998
   40DPPC   GL2  472   3.508   3.985   5.115
   40DPPC   C1A  473   3.530   4.464   5.208
   40DPPC   C2A  474   3.660   4.546   5.451
   40DPPC   C3A  475   3.734   4.684   5.692
   40DPPC   C4A  476   3.905   4.836   5.949
   40DPPC   C1B  477   3.630   3.963   5.420
   40DPPC   C2B  478   3.905   4.117   5.527
   40DPPC   C3B  479   3.955   4.248   5.818
   40DPPC   C4B  480   4.202   4.425   6.009
   41DPPC   NC3  481   6.753   6.775   5.399
   41DPPC   PO4  482   6.749   6.715   5.688
   41DPPC   GL1  483   6.524   6.677   5.983
   41DPPC   GL2  484   6.719   6.738   6.166
   41DPPC   C1A  485   6.252   6.654   6.284
   41DPPC   C2A  486   6.196   6.585   6.557
   41DPPC   C3A  487   6.084   6.471   6.796
   41DPPC   C4A  488   5.959   6.418   7.113
   41DPPC   C1B  489   6.772   6.632   6.472
   41DPPC   C2B  490   6.627   6.755   6.745
   41DPPC   C3B  491   6.528   6.590   7.005
   41DPPC   C4B  492   6.370   6.636   7.324
   42DPPC   NC3  493   8.140   0.501   4.100
   42DPPC   PO4  494   8.002   0.710   4.255
   42DPPC   GL1  495   7.673   0.806   4.403
   42DPPC   GL2  496   7.726   1.075   4.397
   42DPPC   C1A  497   7.299   0.884   4.541
   42DPPC   C2A  498   7.128   1.050   4.701
   42DPPC   C3A  499   6.939   1.146   4.895
   42DPPC   C4A  500   6.685   1.312   5.059
   42DPPC   C1B  501   7.636   1.319   4.598
   42DPPC   C2B  502   7.348   1.483   4.583
   42DPPC   C3B  503   7.171   1.590   4.831
   42DPPC   C4B  504   6.865   1.764   4.906
   43DPPC   NC3  505  -0.263   5.697   3.179
   43DPPC   PO4  506  -0.076   5.588   3.379
   43DPPC   GL1  507   0.212   5.356   3.425
   43DPPC   GL2  508   0.159   5.310   3.690
   43DPPC   C1A  509   0.516   5.088   3.442
   43DPPC   C2A  510   0.728   4.968   3.595
   43DPPC   C3A  511   0.984   4.872   3.685
   43DPPC   C4A  512   1.242   4.687   3.818
   43DPPC   C1B  513   0.357   5.251   3.946
   43DPPC   C2B  514   0.480   4.954   4.028
   43DPPC   C3B  515   0.775   4.889   4.144
   43DPPC   C4B  516   0.982   4.617   4.252
   44DPPC   NC3  517   3.421   6.428   2.035
   44DPPC   PO4  518   3.132   6.370   2.050
   44DPPC   GL1  519   2.798   6.477   1.921
   44DPPC   GL2  520   2.661   6.382   2.139
   44DPPC   C1A  521   2.452   6.624   1.770
   44DPPC   C2A  522   2.168   6.596   1.739
   44DPPC   C3A  523   1.902   6.574   1.630
   44DPPC   C4A  524   1.564   6.600   1.568
   44DPPC   C1B  525   2.361   6.251   2.169
   44DPPC   C2B  526   2.079   6.424   2.200
   44DPPC   C3B  527   1.791   6.354   2.071
   44DPPC   C4B  528   1.454   6.476   2.051
   45DPPC   NC3  529   6.392   2.808   7.313
   45DPPC   PO4  530   6.230   2.583   7.211
   45DPPC   GL1  531   6.105   2.242   7.295
   45DPPC   GL2  532   6.078   2.165   7.033
   45DPPC   C1A  533   5.996   1.869   7.413
   45DPPC   C2A  534   5.836   1.635   7.366
   45DPPC   C3A  535   5.652   1.416   7.393
   45DPPC   C4A  536   5.496   1.109   7.383
   45DPPC   C1B  537   5.862   1.966   6.885
   45DPPC   C2B  538   5.887   1.635   6.869
   45DPPC   C3B  539   5.647   1.420   6.888
   45DPPC   C4B  540   5.585   1.066   6.882
   46DPPC   NC3  541   5.893   3.149   6.164
   46DPPC   PO4  542   5.946   3.332   6.389
   46DPPC   GL1  543   5.800   3.611   6.589
   46DPPC   GL2  544   6.043   3.713   6.663
   46DPPC   C1A  545   5.616   3.920   6.778
   46DPPC   C2A  546   5.614   4.105   6.997
   46DPPC   C3A  547   5.540   4.260   7.228
   46DPPC   C4A  548   5.489   4.511   7.458
   46DPPC   C1B  549   6.143   3.863   6.938
   46DPPC   C2B  550   6.107   4.188   7.001
   46DPPC   C3B  551   6.038   4.325   7.286
   46DPPC   C4B  552   5.982   4.645   7.438
   47DPPC   NC3  553   4.423   2.678   0.753
   47DPPC   PO4  554   4.336   2.412   0.662
   47DPPC   GL1  555   4.170   2.096   0.773
   47DPPC   GL2  556   4.291   1.941   0.582
   47DPPC   C1A  557   3.996   1.764   0.928
   47DPPC   C2A  558   3.881   1.505   0.883
   47DPPC   C3A  559   3.703   1.279   0.877
   47DPPC   C4A  560   3.566   0.963   0.888
   47DPPC   C1B  561   4.188   1.677   0.416
   47DPPC   C2B  562   4.203   1.364   0.528
   47DPPC   C3B  563   3.984   1.130   0.484
   47DPPC   C4B  564   3.919   0.786   0.565
   48DPPC   NC3  565   3.626   5.174   3.599
   48DPPC   PO4  566   3.508   4.933   3.721
   48DPPC   GL1  567   3.184   4.766   3.803
   48DPPC   GL2  568   3.289   4.620   4.010
   48DPPC   C1A  569   2.816   4.619   3.887
   48DPPC   C2A  570   2.656   4.399   3.980
   48DPPC   C3A  571   2.460   4.190   4.002
   48DPPC   C4A  572   2.220   3.969   4.112
   48DPPC   C1B  573   3.217   4.320   4.124
   48DPPC   C2B  574   2.972   4.250   4.337
   48DPPC   C3B  575   2.781   3.990   4.337
   48DPPC   C4B  576   2.507   3.840   4.515
   49DPPC   NC3  577  -0.200   6.289   6.323
   49DPPC   PO4  578  -0.053   6.066   6.448
   49DPPC   GL1  579   0.114   5.740   6.376
   49DPPC   GL2  580   0.079   5.643   6.631
   49DPPC   C1A  581   0.277   5.385   6.266
   49DPPC   C2A  582   0.436   5.157   6.337
   49DPPC   C3A  583   0.637   4.951   6.344
   49DPPC   C4A  584   0.807   4.653   6.373
   49DPPC   C1B  585   0.264   5.444   6.816
   49DPPC   C2B  586   0.260   5.112   6.803
   49DPPC   C3B  587   0.512   4.912   6.832
   49DPPC   C4B  588   0.597   4.563   6.830
   50DPPC   NC3  589   4.112   7.457   6.092
   50DPPC   PO4  590   4.327   7.360   5.915
   50DPPC   GL1  591   4.656   7.184   5.912
   50DPPC   GL2  592   4.738   7.299   5.677
   50DPPC   C1A  593   5.016   7.001   5.946
   50DPPC   C2A  594   5.240   6.876   5.815
   50DPPC   C3A  595   5.444   6.691   5.734
   50DPPC   C4A  596   5.740   6.543   5.637
   50DPPC   C1B  597   4.926   7.185   5.432
   50DPPC   C2B  598   5.258   7.190   5.427
   50DPPC   C3B  599   5.455   6.963   5.309
   50DPPC   C4B  600   5.804   6.887   5.265
   51DPPC   NC3  601   5.131   4.902   5.166
   51DPPC   PO4  602   4.838   4.930   5.187
   51DPPC   GL1  603   4.535   5.053   5.008
   51DPPC   GL2  604   4.391   5.094   5.238
   51DPPC   C1A  605   4.229   5.207   4.792
   51DPPC   C2A  606   3.945   5.241   4.759
   51DPPC   C3A  607   3.677   5.242   4.655
   51DPPC   C4A  608   3.354   5.325   4.570
   51DPPC   C1B  609   4.070   5.067   5.303
   51DPPC   C2B  610   3.843   5.302   5.244
   51DPPC   C3B  611   3.540   5.259   5.141
   51DPPC   C4B  612   3.243   5.442   5.054
   52DPPC   NC3  613   5.106   5.564   3.021
   52DPPC   PO4  614   5.107   5.838   3.130
   52DPPC   GL1  615   5.277   6.170   3.104
   52DPPC   GL2  616   5.214   6.244   3.361
   52DPPC   C1A  617   5.490   6.512   3.059
   52DPPC   C2A  618   5.519   6.791   3.121
   52DPPC   C3A  619   5.549   7.077   3.102
   52DPPC   C4A  620   5.643   7.405   3.147
   52DPPC   C1B  621   5.147   6.538   3.493
   52DPPC   C2B  622   5.374   6.757   3.597
   52DPPC   C3B  623   5.362   7.079   3.571
   52DPPC   C4B  624   5.549   7.375   3.648
   53DPPC   NC3  625   3.049   1.675   2.269
   53DPPC   PO4  626   2.908   1.923   2.191
   53DPPC   GL1  627   2.626   2.149   2.283
   53DPPC   GL2  628   2.592   2.244   2.028
   53DPPC   C1A  629   2.305   2.366   2.404
   53DPPC   C2A  630   2.149   2.606   2.377
   53DPPC   C3A  631   2.007   2.850   2.430
   53DPPC   C4A  632   1.778   3.107   2.437
   53DPPC   C1B  633   2.499   2.538   1.915
   53DPPC   C2B  634   2.184   2.639   1.880
   53DPPC   C3B  635   2.067   2.934   1.935
   53DPPC   C4B  636   1.760   3.122   1.927
   54DPPC   NC3  637   3.148   4.334  -0.787
   54DPPC   PO4  638   2.977   4.420  -0.562
   54DPPC   GL1  639   2.726   4.300  -0.314
   54DPPC   GL2  640   2.611   4.547  -0.281
   54DPPC   C1A  641   2.448   4.140  -0.065
   54DPPC   C2A  642   2.280   4.171   0.165
   54DPPC   C3A  643   2.149   4.136   0.419
   54DPPC   C4A  644   1.920   4.118   0.676
   54DPPC   C1B  645   2.472   4.691  -0.020
   54DPPC   C2B  646   2.157   4.647   0.078
   54DPPC   C3B  647   2.048   4.629   0.381
   54DPPC   C4B  648   1.745   4.585   0.569
   55DPPC   NC3  649   6.958   7.641  -0.639
   55DPPC   PO4  650   6.989   7.535  -0.366
   55DPPC   GL1  651   6.894   7.253  -0.141
   55DPPC   GL2  652   6.921   7.400   0.089
   55DPPC   C1A  653   6.764   6.937   0.079
   55DPPC   C2A  654   6.779   6.788   0.324
   55DPPC   C3A  655   6.809   6.578   0.518
   55DPPC   C4A  656   6.774   6.368   0.789
   55DPPC   C1B  657   7.019   7.316   0.392
   55DPPC   C2B  658   6.823   7.184   0.625
   55DPPC   C3B  659   6.902   6.956   0.840
   55DPPC   C4B  660   6.765   6.764   1.111
   56DPPC   NC3  661   1.082   6.064   1.396
   56DPPC   PO4  662   1.042   6.079   1.688
   56DPPC   GL1  663   0.820   6.221   1.953
   56DPPC   GL2  664   1.016   6.221   2.145
   56DPPC   C1A  665   0.567   6.400   2.215
   56DPPC   C2A  666   0.478   6.430   2.486
   56DPPC   C3A  667   0.318   6.441   2.725
   56DPPC   C4A  668   0.177   6.527   3.027
   56DPPC   C1B  669   1.003   6.175   2.470
   56DPPC   C2B  670   0.932   6.410   2.694
   56DPPC   C3B  671   0.759   6.376   2.964
   56DPPC   C4B  672   0.636   6.563   3.246
   57DPPC   NC3  673   3.544   3.030   0.121
   57DPPC   PO4  674   3.401   2.789   0.027
   57DPPC   GL1  675   3.293   2.447   0.127
   57DPPC   GL2  676   3.284   2.352  -0.131
   57DPPC   C1A  677   3.201   2.076   0.263
   57DPPC   C2A  678   3.059   1.830   0.223
   57DPPC   C3A  679   2.887   1.601   0.256
   57DPPC   C4A  680   2.751   1.285   0.259
   57DPPC   C1B  681   3.089   2.131  -0.276
   57DPPC   C2B  682   3.135   1.802  -0.270
   57DPPC   C3B  683   2.908   1.573  -0.248
   57DPPC   C4B  684   2.868   1.217  -0.234
   58DPPC   NC3  685   2.429   2.458   1.200
   58DPPC   PO4  686   2.382   2.727   1.311
   58DPPC   GL1  687   2.435   3.091   1.247
   58DPPC   GL2  688   2.428   3.159   1.513
   58DPPC   C1A  689   2.519   3.477   1.153
   58DPPC   C2A  690   2.483   3.756   1.211
   58DPPC   C3A  691   2.423   4.036   1.192
   58DPPC   C4A  692   2.426   4.380   1.218
   58DPPC   C1B  693   2.319   3.429   1.667
   58DPPC   C2B  694   2.494   3.709   1.708
   58DPPC   C3B  695   2.382   4.012   1.695
   58DPPC   C4B  696   2.490   4.354   1.724
   59DPPC   NC3  697   6.044   2.042   0.724
   59DPPC   PO4  698   6.337   2.068   0.750
   59DPPC   GL1  699   6.610   2.307   0.834
   59DPPC   GL2  700   6.799   2.173   0.687
   59DPPC   C1A  701   6.883   2.595   0.919
   59DPPC   C2A  702   7.157   2.663   0.973
   59DPPC   C3A  703   7.398   2.764   1.093
   59DPPC   C4A  704   7.705   2.907   1.153
   59DPPC   C1B  705   7.122   2.132   0.733
   59DPPC   C2B  706   7.357   2.349   0.641
   59DPPC   C3B  707   7.628   2.422   0.801
   59DPPC   C4B  708   7.920   2.631   0.781
   60DPPC   NC3  709   3.502   2.070   4.458
   60DPPC   PO4  710   3.538   2.343   4.563
   60DPPC   GL1  711   3.771   2.635   4.563
   60DPPC   GL2  712   3.681   2.731   4.804
   60DPPC   C1A  713   4.050   2.929   4.553
   60DPPC   C2A  714   4.122   3.200   4.615
   60DPPC   C3A  715   4.210   3.473   4.599
   60DPPC   C4A  716   4.356   3.780   4.657
   60DPPC   C1B  717   3.651   3.038   4.919
   60DPPC   C2B  718   3.895   3.214   5.060
   60DPPC   C3B  719   3.950   3.531   5.029
   60DPPC   C4B  720   4.175   3.790   5.134
   61DPPC   NC3  721   5.320  -0.104   3.216
   61DPPC   PO4  722   5.503   0.090   3.089
   61DPPC   GL1  723   5.747   0.362   3.162
   61DPPC   GL2  724   5.713   0.485   2.918
   61DPPC   C1A  725   5.997   0.661   3.274
   61DPPC   C2A  726   6.198   0.853   3.200
   61DPPC   C3A  727   6.440   1.008   3.184
   61DPPC   C4A  728   6.671   1.261   3.154
   61DPPC   C1B  729   5.922   0.650   2.726
   61DPPC   C2B  730   5.996   0.973   2.759
   61DPPC   C3B  731   6.284   1.112   2.714
   61DPPC   C4B  732   6.448   1.432   2.728
   62DPPC   NC3  733   4.182   3.138   2.367
   62DPPC   PO4  734   3.964   2.994   2.230
   62DPPC   GL1  735   3.879   2.801   1.923
   62DPPC   GL2  736   3.611   2.860   1.935
   62DPPC   C1A  737   3.817   2.606   1.572
   62DPPC   C2A  738   3.644   2.444   1.410
   62DPPC   C3A  739   3.535   2.234   1.247
   62DPPC   C4A  740   3.371   2.051   1.005
   62DPPC   C1B  741   3.345   2.687   1.850
   62DPPC   C2B  742   3.219   2.670   1.542
   62DPPC   C3B  743   3.088   2.412   1.399
   62DPPC   C4B  744   2.938   2.307   1.090
   63DPPC   NC3  745   2.458   0.114   3.930
   63DPPC   PO4  746   2.475   0.319   3.719
   63DPPC   GL1  747   2.408   0.678   3.644
   63DPPC   GL2  748   2.380   0.638   3.374
   63DPPC   C1A  749   2.313   1.069   3.593
   63DPPC   C2A  750   2.325   1.304   3.428
   63DPPC   C3A  751   2.370   1.571   3.329
   63DPPC   C4A  752   2.343   1.877   3.174
   63DPPC   C1B  753   2.455   0.827   3.116
   63DPPC   C2B  754   2.261   1.067   2.993
   63DPPC   C3B  755   2.354   1.353   2.873
   63DPPC   C4B  756   2.223   1.655   2.730
   64DPPC   NC3  757   1.568   1.754   5.316
   64DPPC   PO4  758   1.755   1.951   5.430
   64DPPC   GL1  759   2.094   2.100   5.390
   64DPPC   GL2  760   2.117   2.170   5.654
   64DPPC   C1A  761   2.472   2.233   5.325
   64DPPC   C2A  762   2.679   2.422   5.388
   64DPPC   C3A  763   2.883   2.624   5.373
   64DPPC   C4A  764   3.169   2.812   5.413
   64DPPC   C1B  765   2.265   2.424   5.801
   64DPPC   C2B  766   2.588   2.437   5.879
   64DPPC   C3B  767   2.783   2.695   5.863
   64DPPC   C4B  768   3.123   2.796   5.922
   65DPPC   NC3  769   5.670   1.968   4.436
   65DPPC   PO4  770   5.922   2.096   4.521
   65DPPC   GL1  771   6.292   2.049   4.534
   65DPPC   GL2  772   6.326   2.217   4.748
   65DPPC   C1A  773   6.688   1.962   4.542
   65DPPC   C2A  774   6.957   2.051   4.592
   65DPPC   C3A  775   7.236   2.115   4.566
   65DPPC   C4A  776   7.574   2.158   4.619
   65DPPC   C1B  777   6.572   2.420   4.830
   65DPPC   C2B  778   6.848   2.330   4.991
   65DPPC   C3B  779   7.148   2.440   4.942
   65DPPC   C4B  780   7.485   2.402   5.059
   66DPPC   NC3  781   6.817  -0.238   2.856
   66DPPC   PO4  782   6.557  -0.140   2.758
   66DPPC   GL1  783   6.357  -0.081   2.448
   66DPPC   GL2  784   6.203   0.116   2.562
   66DPPC   C1A  785   6.171  -0.019   2.093
   66DPPC   C2A  786   5.931   0.050   1.952
   66DPPC   C3A  787   5.704   0.049   1.775
   66DPPC   C4A  788   5.455   0.135   1.553
   66DPPC   C1B  789   5.888   0.201   2.515
   66DPPC   C2B  790   5.779   0.401   2.273
   66DPPC   C3B  791   5.504   0.374   2.106
   66DPPC   C4B  792   5.317   0.532   1.843
   67DPPC   NC3  793   4.717   2.661   1.814
   67DPPC   PO4  794   4.815   2.740   2.080
   67DPPC   GL1  795   5.125   2.790   2.282
   67DPPC   GL2  796   5.000   2.746   2.522
   67DPPC   C1A  797   5.480   2.823   2.476
   67DPPC   C2A  798   5.623   2.908   2.710
   67DPPC   C3A  799   5.809   3.033   2.890
   67DPPC   C4A  800   6.031   3.103   3.145
   67DPPC   C1B  801   5.051   2.874   2.821
   67DPPC   C2B  802   5.276   2.764   3.039
   67DPPC   C3B  803   5.456   2.942   3.240
   67DPPC   C4B  804   5.710   2.912   3.493
   68DPPC   NC3  805   1.425   5.716   5.758
   68DPPC   PO4  806   1.547   5.595   5.998
   68DPPC   GL1  807   1.473   5.476   6.344
   68DPPC   GL2  808   1.730   5.513   6.433
   68DPPC   C1A  809   1.361   5.366   6.718
   68DPPC   C2A  810   1.429   5.237   6.965
   68DPPC   C3A  811   1.431   5.065   7.196
   68DPPC   C4A  812   1.457   4.935   7.514
   68DPPC   C1B  813   1.911   5.349   6.654
   68DPPC   C2B  814   1.902   5.398   6.982
   68DPPC   C3B  815   1.924   5.174   7.214
   68DPPC   C4B  816   1.923   5.136   7.571
   69DPPC   NC3  817   2.106   1.102   4.609
   69DPPC   PO4  818   1.905   0.937   4.470
   69DPPC   GL1  819   1.748   0.873   4.138
   69DPPC   GL2  820   1.516   0.773   4.244
   69DPPC   C1A  821   1.590   0.837   3.766
   69DPPC   C2A  822   1.421   0.691   3.585
   69DPPC   C3A  823   1.318   0.544   3.361
   69DPPC   C4A  824   1.124   0.420   3.105
   69DPPC   C1B  825   1.309   0.540   4.139
   69DPPC   C2B  826   1.064   0.587   3.919
   69DPPC   C3B  827   0.967   0.384   3.687
   69DPPC   C4B  828   0.729   0.353   3.421
   70DPPC   NC3  829   1.352   5.673   5.247
   70DPPC   PO4  830   1.438   5.392   5.223
   70DPPC   GL1  831   1.541   5.091   5.419
   70DPPC   GL2  832   1.688   4.983   5.215
   70DPPC   C1A  833   1.659   4.788   5.662
   70DPPC   C2A  834   1.729   4.511   5.690
   70DPPC   C3A  835   1.741   4.236   5.773
   70DPPC   C4A  836   1.844   3.921   5.866
   70DPPC   C1B  837   1.745   4.671   5.128
   70DPPC   C2B  838   1.980   4.476   5.259
   70DPPC   C3B  839   1.959   4.160   5.323
   70DPPC   C4B  840   2.148   3.886   5.457
   71DPPC   NC3  841   5.181   3.882   5.824
   71DPPC   PO4  842   5.329   3.643   5.733
   71DPPC   GL1  843   5.608   3.412   5.822
   71DPPC   GL2  844   5.658   3.340   5.562
   71DPPC   C1A  845   5.923   3.186   5.943
   71DPPC   C2A  846   6.083   2.951   5.905
   71DPPC   C3A  847   6.224   2.703   5.945
   71DPPC   C4A  848   6.455   2.448   5.944
   71DPPC   C1B  849   5.761   3.057   5.429
   71DPPC   C2B  850   6.079   2.962   5.406
   71DPPC   C3B  851   6.196   2.663   5.442
   71DPPC   C4B  852   6.505   2.478   5.436
   72DPPC   NC3  853   6.242   3.353   4.060
   72DPPC   PO4  854   6.482   3.187   4.017
   72DPPC   GL1  855   6.777   3.036   4.189
   72DPPC   GL2  856   6.929   3.025   3.961
   72DPPC   C1A  857   7.091   2.896   4.404
   72DPPC   C2A  858   7.323   2.728   4.415
   72DPPC   C3A  859   7.518   2.529   4.491
   72DPPC   C4A  860   7.808   2.358   4.561
   72DPPC   C1B  861   7.158   2.810   3.861
   72DPPC   C2B  862   7.478   2.818   3.949
   72DPPC   C3B  863   7.670   2.565   4.010
   72DPPC   C4B  864   8.006   2.483   4.107
   73DPPC   NC3  865   3.191   3.059   6.286
   73DPPC   PO4  866   3.160   3.093   6.578
   73DPPC   GL1  867   2.921   3.203   6.843
   73DPPC   GL2  868   3.119   3.268   7.022
   73DPPC   C1A  869   2.643   3.341   7.103
   73DPPC   C2A  870   2.559   3.375   7.376
   73DPPC   C3A  871   2.411   3.370   7.623
   73DPPC   C4A  872   2.265   3.449   7.924
   73DPPC   C1B  873   3.130   3.251   7.350
   73DPPC   C2B  874   3.012   3.483   7.557
   73DPPC   C3B  875   2.863   3.435   7.839
   73DPPC   C4B  876   2.710   3.614   8.112
   74DPPC   NC3  877   4.175   5.869   8.085
   74DPPC   PO4  878   4.265   5.900   7.806
   74DPPC   GL1  879   4.542   5.822   7.570
   74DPPC   GL2  880   4.487   6.032   7.403
   74DPPC   C1A  881   4.866   5.730   7.343
   74DPPC   C2A  882   4.987   5.720   7.083
   74DPPC   C3A  883   5.118   5.634   6.842
   74DPPC   C4A  884   5.318   5.608   6.562
   74DPPC   C1B  885   4.517   6.067   7.077
   74DPPC   C2B  886   4.797   6.152   6.919
   74DPPC   C3B  887   4.902   6.040   6.635
   74DPPC   C4B  888   5.175   6.071   6.403
   75DPPC   NC3  889   5.126   2.070   1.708
   75DPPC   PO4  890   5.390   1.973   1.799
   75DPPC   GL1  891   5.600   1.916   2.101
   75DPPC   GL2  892   5.838   1.937   1.965
   75DPPC   C1A  893   5.806   1.877   2.449
   75DPPC   C2A  894   6.039   1.778   2.585
   75DPPC   C3A  895   6.217   1.643   2.766
   75DPPC   C4A  896   6.475   1.560   2.979
   75DPPC   C1B  897   6.128   1.788   2.007
   75DPPC   C2B  898   6.363   1.886   2.220
   75DPPC   C3B  899   6.558   1.697   2.397
   75DPPC   C4B  900   6.823   1.714   2.639
   76DPPC   NC3  901   0.774   0.054   0.446
   76DPPC   PO4  902   1.031   0.186   0.506
   76DPPC   GL1  903   1.381   0.228   0.385
   76DPPC   GL2  904   1.482   0.285   0.634
   76DPPC   C1A  905   1.757   0.242   0.232
   76DPPC   C2A  906   2.019   0.360   0.239
   76DPPC   C3A  907   2.265   0.492   0.168
   76DPPC   C4A  908   2.594   0.586   0.135
   76DPPC   C1B  909   1.727   0.482   0.730
   76DPPC   C2B  910   2.048   0.397   0.736
   76DPPC   C3B  911   2.301   0.585   0.663
   76DPPC   C4B  912   2.660   0.579   0.641
   77DPPC   NC3  913   7.653   7.356   2.534
   77DPPC   PO4  914   7.667   7.171   2.305
   77DPPC   GL1  915   7.462   7.005   2.041
   77DPPC   GL2  916   7.634   6.793   2.012
   77DPPC   C1A  917   7.209   6.832   1.775
   77DPPC   C2A  918   7.175   6.673   1.538
   77DPPC   C3A  919   7.099   6.577   1.278
   77DPPC   C4A  920   6.996   6.386   1.010
   77DPPC   C1B  921   7.716   6.612   1.750
   77DPPC   C2B  922   7.544   6.351   1.637
   77DPPC   C3B  923   7.495   6.268   1.329
   77DPPC   C4B  924   7.332   6.020   1.126
   78DPPC   NC3  925   3.570   3.910   6.649
   78DPPC   PO4  926   3.708   4.003   6.893
   78DPPC   GL1  927   4.025   4.154   7.019
   78DPPC   GL2  928   3.998   4.050   7.271
   78DPPC   C1A  929   4.386   4.308   7.123
   78DPPC   C2A  930   4.552   4.424   7.326
   78DPPC   C3A  931   4.725   4.599   7.475
   78DPPC   C4A  932   4.972   4.731   7.676
   78DPPC   C1B  933   4.085   4.167   7.566
   78DPPC   C2B  934   4.388   4.137   7.701
   78DPPC   C3B  935   4.544   4.357   7.879
   78DPPC   C4B  936   4.853   4.410   8.054
   79DPPC   NC3  937   6.289   8.309   6.925
   79DPPC   PO4  938   6.090   8.104   7.000
   79DPPC   GL1  939   6.053   7.765   7.149
   79DPPC   GL2  940   5.815   7.713   7.022
   79DPPC   C1A  941   6.048   7.390   7.305
   79DPPC   C2A  942   5.895   7.170   7.408
   79DPPC   C3A  943   5.790   6.960   7.575
   79DPPC   C4A  944   5.662   6.665   7.696
   79DPPC   C1B  945   5.551   7.540   7.114
   79DPPC   C2B  946   5.518   7.211   7.083
   79DPPC   C3B  947   5.375   7.008   7.291
   79DPPC   C4B  948   5.298   6.660   7.338
   80DPPC   NC3  949   1.936   2.492   7.004
   80DPPC   PO4  950   1.971   2.776   6.934
   80DPPC   GL1  951   1.916   3.124   7.058
   80DPPC   GL2  952   1.904   3.233   6.807
   80DPPC   C1A  953   1.832   3.488   7.218
   80DPPC   C2A  954   1.860   3.773   7.202
   80DPPC   C3A  955   1.916   4.049   7.261
   80DPPC   C4A  956   1.905   4.392   7.291
   80DPPC   C1B  957   1.999   3.526   6.691
   80DPPC   C2B  958   1.817   3.805   6.706
   80DPPC   C3B  959   1.924   4.105   6.759
   80DPPC   C4B  960   1.809   4.444   6.792
   81DPPC   NC3  961  -0.646   3.364   1.246
   81DPPC   PO4  962  -0.373   3.363   1.133
   81DPPC   GL1  963  -0.182   3.361   0.813
   81DPPC   GL2  964   0.040   3.243   0.923
   81DPPC   C1A  965  -0.005   3.347   0.448
   81DPPC   C2A  966   0.236   3.362   0.292
   81DPPC   C3A  967   0.437   3.434   0.099
   81DPPC   C4A  968   0.688   3.432  -0.136
   81DPPC   C1B  969   0.361   3.277   0.857
   81DPPC   C2B  970   0.524   3.115   0.617
   81DPPC   C3B  971   0.760   3.230   0.429
   81DPPC   C4B  972   0.979   3.135   0.160
   82DPPC   NC3  973   4.264   5.485   4.328
   82DPPC   PO4  974   4.243   5.215   4.212
   82DPPC   GL1  975   4.366   4.865   4.245
   82DPPC   GL2  976   4.323   4.803   3.981
   82DPPC   C1A  977   4.528   4.497   4.301
   82DPPC   C2A  978   4.528   4.218   4.234
   82DPPC   C3A  979   4.520   3.930   4.247
   82DPPC   C4A  980   4.576   3.593   4.201
   82DPPC   C1B  981   4.234   4.523   3.833
   82DPPC   C2B  982   4.442   4.279   3.746
   82DPPC   C3B  983   4.387   3.961   3.761
   82DPPC   C4B  984   4.543   3.644   3.694
   83DPPC   NC3  985  -0.733   2.901   7.710
   83DPPC   PO4  986  -0.466   2.845   7.596
   83DPPC   GL1  987  -0.282   2.623   7.359
   83DPPC   GL2  988  -0.041   2.655   7.485
   83DPPC   C1A  989  -0.111   2.358   7.104
   83DPPC   C2A  990   0.121   2.278   6.955
   83DPPC   C3A  991   0.301   2.201   6.745
   83DPPC   C4A  992   0.546   2.050   6.555
   83DPPC   C1B  993   0.267   2.662   7.370
   83DPPC   C2B  994   0.454   2.395   7.308
   83DPPC   C3B  995   0.662   2.354   7.064
   83DPPC   C4B  996   0.891   2.114   6.926
   84DPPC   NC3  997   6.709   3.889   3.440
   84DPPC   PO4  998   6.764   4.171   3.374
   84DPPC   GL1  999   6.854   4.401   3.095
   84DPPC   GL2 1000   6.971   4.587   3.259
   84DPPC   C1A 1001   6.962   4.622   2.772
   84DPPC   C2A 1002   7.007   4.882   2.658
   84DPPC   C3A 1003   6.999   5.115   2.489
   84DPPC   C4A 1004   7.078   5.393   2.302
   84DPPC   C1B 1005   6.989   4.915   3.241
   84DPPC   C2B 1006   7.215   5.084   3.064
   84DPPC   C3B 1007   7.168   5.358   2.899
   84DPPC   C4B 1008   7.340   5.595   2.691
   85DPPC   NC3 1009   4.858   0.902   3.284
   85DPPC   PO4 1010   4.947   0.911   3.003
   85DPPC   GL1 1011   4.871   1.057   2.668
   85DPPC   GL2 1012   4.992   0.854   2.529
   85DPPC   C1A 1013   4.753   1.224   2.318
   85DPPC   C2A 1014   4.810   1.276   2.041
   85DPPC   C3A 1015   4.855   1.404   1.788
   85DPPC   C4A 1016   4.862   1.488   1.454
   85DPPC   C1B 1017   5.156   0.852   2.245
   85DPPC   C2B 1018   5.016   0.832   1.944
   85DPPC   C3B 1019   5.110   0.983   1.674
   85DPPC   C4B 1020   5.024   1.021   1.327
   86DPPC   NC3 1021   5.834   3.871   3.620
   86DPPC   PO4 1022   5.884   3.996   3.357
   86DPPC   GL1 1023   6.152   4.080   3.112
   86DPPC   GL2 1024   6.014   4.289   3.001
   86DPPC   C1A 1025   6.469   4.166   2.873
   86DPPC   C2A 1026   6.564   4.261   2.619
   86DPPC   C3A 1027   6.698   4.285   2.365
   86DPPC   C4A 1028   6.871   4.398   2.090
   86DPPC   C1B 1029   6.003   4.406   2.694
   86DPPC   C2B 1030   6.222   4.620   2.564
   86DPPC   C3B 1031   6.337   4.623   2.262
   86DPPC   C4B 1032   6.562   4.802   2.047
   87DPPC   NC3 1033   2.907   5.723   5.223
   87DPPC   PO4 1034   3.198   5.740   5.179
   87DPPC   GL1 1035   3.528   5.739   5.354
   87DPPC   GL2 1036   3.656   5.879   5.156
   87DPPC   C1A 1037   3.867   5.746   5.575
   87DPPC   C2A 1038   4.154   5.741   5.582
   87DPPC   C3A 1039   4.429   5.674   5.638
   87DPPC   C4A 1040   4.765   5.682   5.709
   87DPPC   C1B 1041   3.965   5.867   5.044
   87DPPC   C2B 1042   4.223   6.027   5.179
   87DPPC   C3B 1043   4.526   5.920   5.208
   87DPPC   C4B 1044   4.849   6.017   5.333
   88DPPC   NC3 1045   6.708   6.234   6.475
   88DPPC   PO4 1046   6.463   6.074   6.436
   88DPPC   GL1 1047   6.221   5.848   6.610
   88DPPC   GL2 1048   6.145   5.720   6.380
   88DPPC   C1A 1049   5.985   5.598   6.825
   88DPPC   C2A 1050   5.743   5.444   6.840
   88DPPC   C3A 1051   5.491   5.333   6.922
   88DPPC   C4A 1052   5.227   5.124   6.995
   88DPPC   C1B 1053   5.857   5.591   6.286
   88DPPC   C2B 1054   5.750   5.286   6.366
   88DPPC   C3B 1055   5.447   5.199   6.437
   88DPPC   C4B 1056   5.251   4.913   6.531
   89DPPC   NC3 1057   6.412   3.641   0.665
   89DPPC   PO4 1058   6.620   3.823   0.768
   89DPPC   GL1 1059   6.966   3.949   0.704
   89DPPC   GL2 1060   7.013   4.011   0.967
   89DPPC   C1A 1061   7.346   4.057   0.613
   89DPPC   C2A 1062   7.569   4.230   0.663
   89DPPC   C3A 1063   7.786   4.418   0.636
   89DPPC   C4A 1064   8.086   4.584   0.657
   89DPPC   C1B 1065   7.190   4.251   1.107
   89DPPC   C2B 1066   7.518   4.240   1.160
   89DPPC   C3B 1067   7.728   4.484   1.133
   89DPPC   C4B 1068   8.078   4.560   1.167
   90DPPC   NC3 1069   0.831   5.149   5.541
   90DPPC   PO4 1070   0.826   5.135   5.246
   90DPPC   GL1 1071   0.740   4.914   4.958
   90DPPC   GL2 1072   0.914   5.037   4.786
   90DPPC   C1A 1073   0.647   4.644   4.670
   90DPPC   C2A 1074   0.608   4.590   4.390
   90DPPC   C3A 1075   0.498   4.509   4.137
   90DPPC   C4A 1076   0.449   4.381   3.821
   90DPPC   C1B 1077   0.898   5.092   4.462
   90DPPC   C2B 1078   0.985   4.874   4.227
   90DPPC   C3B 1079   0.840   4.825   3.942
   90DPPC   C4B 1080   0.862   4.624   3.645
   91DPPC   NC3 1081   1.488   4.945   3.057
   91DPPC   PO4 1082   1.516   4.942   2.763
   91DPPC   GL1 1083   1.397   4.772   2.453
   91DPPC   GL2 1084   1.623   4.831   2.310
   91DPPC   C1A 1085   1.255   4.560   2.137
   91DPPC   C2A 1086   1.236   4.530   1.853
   91DPPC   C3A 1087   1.138   4.500   1.583
   91DPPC   C4A 1088   1.089   4.406   1.256
   91DPPC   C1B 1089   1.669   4.897   1.991
   91DPPC   C2B 1090   1.705   4.668   1.752
   91DPPC   C3B 1091   1.591   4.681   1.450
   91DPPC   C4B 1092   1.580   4.492   1.144
   92DPPC   NC3 1093   2.870   0.374   4.758
   92DPPC   PO4 1094   2.636   0.432   4.928
   92DPPC   GL1 1095   2.365   0.681   4.990
   92DPPC   GL2 1096   2.332   0.610   5.252
   92DPPC   C1A 1097   2.091   0.977   5.038
   92DPPC   C2A 1098   1.850   1.067   5.164
   92DPPC   C3A 1099   1.585   1.170   5.214
   92DPPC   C4A 1100   1.311   1.337   5.340
   92DPPC   C1B 1101   2.065   0.603   5.445
   92DPPC   C2B 1102   1.942   0.864   5.610
   92DPPC   C3B 1103   1.631   0.936   5.659
   92DPPC   C4B 1104   1.419   1.181   5.814
   93DPPC   NC3 1105   1.907   2.683   4.777
   93DPPC   PO4 1106   1.904   2.975   4.733
   93DPPC   GL1 1107   1.952   3.240   4.474
   93DPPC   GL2 1108   2.022   3.433   4.656
   93DPPC   C1A 1109   2.021   3.501   4.172
   93DPPC   C2A 1110   2.013   3.772   4.078
   93DPPC   C3A 1111   1.962   4.011   3.925
   93DPPC   C4A 1112   1.986   4.313   3.760
   93DPPC   C1B 1113   1.971   3.758   4.660
   93DPPC   C2B 1114   2.161   3.983   4.506
   93DPPC   C3B 1115   2.062   4.252   4.357
   93DPPC   C4B 1116   2.187   4.535   4.174
   94DPPC   NC3 1117   4.209  -0.566   7.412
   94DPPC   PO4 1118   4.018  -0.347   7.363
   94DPPC   GL1 1119   3.655  -0.260   7.364
   94DPPC   GL2 1120   3.683  -0.056   7.182
   94DPPC   C1A 1121   3.253  -0.202   7.363
   94DPPC   C2A 1122   3.033  -0.019   7.344
   94DPPC   C3A 1123   2.793   0.132   7.395
   94DPPC   C4A 1124   2.493   0.298   7.368
   94DPPC   C1B 1125   3.524   0.230   7.148
   94DPPC   C2B 1126   3.235   0.270   6.989
   94DPPC   C3B 1127   2.992   0.466   7.073
   94DPPC   C4B 1128   2.663   0.568   6.970
   95DPPC   NC3 1129   2.249   3.928   5.783
   95DPPC   PO4 1130   2.417   4.004   5.552
   95DPPC   GL1 1131   2.686   4.237   5.442
   95DPPC   GL2 1132   2.615   4.226   5.177
   95DPPC   C1A 1133   2.969   4.513   5.351
   95DPPC   C2A 1134   3.164   4.610   5.163
   95DPPC   C3A 1135   3.407   4.700   5.038
   95DPPC   C4A 1136   3.644   4.868   4.853
   95DPPC   C1B 1137   2.794   4.241   4.902
   95DPPC   C2B 1138   2.892   4.522   4.754
   95DPPC   C3B 1139   3.174   4.578   4.607
   95DPPC   C4B 1140   3.356   4.834   4.433
   96DPPC   NC3 1141   1.687   5.295   7.101
   96DPPC   PO4 1142   1.570   5.547   7.002
   96DPPC   GL1 1143   1.411   5.866   7.111
   96DPPC   GL2 1144   1.275   5.901   6.875
   96DPPC   C1A 1145   1.230   6.197   7.262
   96DPPC   C2A 1146   1.124   6.459   7.215
   96DPPC   C3A 1147   1.069   6.741   7.227
   96DPPC   C4A 1148   0.918   7.051   7.232
   96DPPC   C1B 1149   1.190   6.173   6.710
   96DPPC   C2B 1150   0.920   6.357   6.771
   96DPPC   C3B 1151   0.895   6.679   6.757
   96DPPC   C4B 1152   0.660   6.946   6.805
   97DPPC   NC3 1153  -0.110   1.021   7.334
   97DPPC   PO4 1154   0.099   1.218   7.268
   97DPPC   GL1 1155   0.468   1.265   7.237
   97DPPC   GL2 1156   0.458   1.536   7.282
   97DPPC   C1A 1157   0.873   1.285   7.226
   97DPPC   C2A 1158   1.108   1.434   7.155
   97DPPC   C3A 1159   1.360   1.516   7.043
   97DPPC   C4A 1160   1.674   1.648   6.991
   97DPPC   C1B 1161   0.640   1.783   7.166
   97DPPC   C2B 1162   0.932   1.881   7.291
   97DPPC   C3B 1163   1.191   1.984   7.128
   97DPPC   C4B 1164   1.527   2.101   7.176
   98DPPC   NC3 1165   3.960   6.011   6.053
   98DPPC   PO4 1166   3.933   5.826   6.282
   98DPPC   GL1 1167   3.691   5.608   6.464
   98DPPC   GL2 1168   3.828   5.621   6.702
   98DPPC   C1A 1169   3.401   5.391   6.645
   98DPPC   C2A 1170   3.330   5.194   6.843
   98DPPC   C3A 1171   3.227   4.962   6.977
   98DPPC   C4A 1172   3.081   4.743   7.200
   98DPPC   C1B 1173   3.867   5.402   6.943
   98DPPC   C2B 1174   3.652   5.351   7.192
   98DPPC   C3B 1175   3.574   5.068   7.328
   98DPPC   C4B 1176   3.365   4.926   7.583
   99DPPC   NC3 1177   5.952   5.406   4.428
   99DPPC   PO4 1178   6.068   5.214   4.620
   99DPPC   GL1 1179   6.227   5.186   4.956
   99DPPC   GL2 1180   6.362   4.956   4.895
   99DPPC   C1A 1181   6.407   5.193   5.320
   99DPPC   C2A 1182   6.512   5.046   5.543
   99DPPC   C3A 1183   6.567   4.944   5.807
   99DPPC   C4A 1184   6.716   4.825   6.093
   99DPPC   C1B 1185   6.446   4.696   5.079
   99DPPC   C2B 1186   6.716   4.678   5.273
   99DPPC   C3B 1187   6.740   4.537   5.562
   99DPPC   C4B 1188   6.974   4.474   5.827
  100DPPC   NC3 1189   4.559   3.916   1.426
  100DPPC   PO4 1190   4.485   3.871   1.144
  100DPPC   GL1 1191   4.198   3.798   0.917
  100DPPC   GL2 1192   4.354   3.681   0.724
  100DPPC   C1A 1193   3.866   3.707   0.701
  100DPPC   C2A 1194   3.745   3.674   0.443
  100DPPC   C3A 1195   3.571   3.694   0.215
  100DPPC   C4A 1196   3.375   3.630  -0.061
  100DPPC   C1B 1197   4.327   3.674   0.397
  100DPPC   C2B 1198   4.140   3.460   0.225
  100DPPC   C3B 1199   3.969   3.521  -0.043
  100DPPC   C4B 1200   3.751   3.362  -0.280
  101DPPC   NC3 1201   2.974   6.276   1.174
  101DPPC   PO4 1202   3.251   6.216   1.255
  101DPPC   GL1 1203   3.558   6.027   1.158
  101DPPC   GL2 1204   3.652   6.008   1.415
  101DPPC   C1A 1205   3.870   5.801   1.029
  101DPPC   C2A 1206   4.146   5.728   1.057
  101DPPC   C3A 1207   4.425   5.675   1.009
  101DPPC   C4A 1208   4.741   5.540   1.000
  101DPPC   C1B 1209   3.958   6.005   1.536
  101DPPC   C2B 1210   4.153   5.737   1.557
  101DPPC   C3B 1211   4.472   5.723   1.509
  101DPPC   C4B 1212   4.748   5.492   1.508
  102DPPC   NC3 1213   1.715   5.798   1.997
  102DPPC   PO4 1214   1.746   5.682   2.266
  102DPPC   GL1 1215   1.587   5.661   2.603
  102DPPC   GL2 1216   1.823   5.611   2.733
  102DPPC   C1A 1217   1.394   5.668   2.960
  102DPPC   C2A 1218   1.372   5.566   3.227
  102DPPC   C3A 1219   1.274   5.449   3.471
  102DPPC   C4A 1220   1.205   5.375   3.801
  102DPPC   C1B 1221   1.892   5.430   2.999
  102DPPC   C2B 1222   1.862   5.534   3.314
  102DPPC   C3B 1223   1.762   5.361   3.568
  102DPPC   C4B 1224   1.701   5.388   3.921
  103DPPC   NC3 1225   6.283   2.977   1.306
  103DPPC   PO4 1226   6.445   2.764   1.431
  103DPPC   GL1 1227   6.537   2.404   1.405
  103DPPC   GL2 1228   6.596   2.379   1.672
  103DPPC   C1A 1229   6.608   2.008   1.355
  103DPPC   C2A 1230   6.759   1.775   1.430
  103DPPC   C3A 1231   6.926   1.541   1.426
  103DPPC   C4A 1232   7.064   1.230   1.480
  103DPPC   C1B 1233   6.819   2.196   1.831
  103DPPC   C2B 1234   6.777   1.878   1.918
  103DPPC   C3B 1235   7.000   1.644   1.915
  103DPPC   C4B 1236   7.043   1.294   1.986
  104DPPC   NC3 1237   1.447   2.644   2.553
  104DPPC   PO4 1238   1.171   2.564   2.619
  104DPPC   GL1 1239   0.949   2.458   2.900
  104DPPC   GL2 1240   0.775   2.322   2.737
  104DPPC   C1A 1241   0.739   2.335   3.225
  104DPPC   C2A 1242   0.484   2.269   3.340
  104DPPC   C3A 1243   0.252   2.258   3.509
  104DPPC   C4A 1244  -0.018   2.157   3.697
  104DPPC   C1B 1245   0.450   2.275   2.757
  104DPPC   C2B 1246   0.301   2.038   2.936
  104DPPC   C3B 1247   0.025   2.063   3.102
  104DPPC   C4B 1248  -0.196   1.873   3.312
  105DPPC   NC3 1249   4.971   6.213   5.764
  105DPPC   PO4 1250   5.208   6.077   5.653
  105DPPC   GL1 1251   5.568   6.002   5.718
  105DPPC   GL2 1252   5.630   5.972   5.452
  105DPPC   C1A 1253   5.959   5.949   5.813
  105DPPC   C2A 1254   6.208   5.819   5.755
  105DPPC   C3A 1255   6.452   5.667   5.774
  105DPPC   C4A 1256   6.776   5.553   5.749
  105DPPC   C1B 1257   5.846   5.777   5.299
  105DPPC   C2B 1258   6.169   5.845   5.258
  105DPPC   C3B 1259   6.415   5.637   5.271
  105DPPC   C4B 1260   6.773   5.621   5.243
  106DPPC   NC3 1261   1.544   1.311   7.139
  106DPPC   PO4 1262   1.310   1.153   7.053
  106DPPC   GL1 1263   1.133   0.828   7.104
  106DPPC   GL2 1264   1.018   0.829   6.855
  106DPPC   C1A 1265   0.973   0.462   7.176
  106DPPC   C2A 1266   0.754   0.280   7.137
  106DPPC   C3A 1267   0.537   0.097   7.179
  106DPPC   C4A 1268   0.314  -0.166   7.160
  106DPPC   C1B 1269   0.728   0.716   6.749
  106DPPC   C2B 1270   0.667   0.401   6.661
  106DPPC   C3B 1271   0.396   0.233   6.713
  106DPPC   C4B 1272   0.250  -0.091   6.659
  107DPPC   NC3 1273   6.193   1.943   5.438
  107DPPC   PO4 1274   6.427   2.052   5.582
  107DPPC   GL1 1275   6.789   2.135   5.545
  107DPPC   GL2 1276   6.842   2.110   5.813
  107DPPC   C1A 1277   7.183   2.202   5.475
  107DPPC   C2A 1278   7.431   2.315   5.565
  107DPPC   C3A 1279   7.675   2.466   5.585
  107DPPC   C4A 1280   7.998   2.569   5.642
  107DPPC   C1B 1281   7.053   2.269   6.009
  107DPPC   C2B 1282   7.375   2.191   6.046
  107DPPC   C3B 1283   7.622   2.396   6.082
  107DPPC   C4B 1284   7.979   2.402   6.124
  108DPPC   NC3 1285   1.094   3.505   1.401
  108DPPC   PO4 1286   0.867   3.323   1.454
  108DPPC   GL1 1287   0.780   2.979   1.569
  108DPPC   GL2 1288   0.540   2.974   1.437
  108DPPC   C1A 1289   0.721   2.595   1.686
  108DPPC   C2A 1290   0.537   2.390   1.766
  108DPPC   C3A 1291   0.401   2.182   1.910
  108DPPC   C4A 1292   0.231   1.896   2.001
  108DPPC   C1B 1293   0.253   2.832   1.511
  108DPPC   C2B 1294   0.174   2.516   1.447
  108DPPC   C3B 1295   0.001   2.316   1.632
  108DPPC   C4B 1296  -0.124   1.979   1.644
  109DPPC   NC3 1297   4.737   5.099   3.234
  109DPPC   PO4 1298   4.639   5.226   2.987
  109DPPC   GL1 1299   4.463   5.158   2.664
  109DPPC   GL2 1300   4.576   5.372   2.535
  109DPPC   C1A 1301   4.280   5.049   2.319
  109DPPC   C2A 1302   4.154   5.128   2.074
  109DPPC   C3A 1303   3.969   5.163   1.857
  109DPPC   C4A 1304   3.820   5.196   1.548
  109DPPC   C1B 1305   4.460   5.572   2.301
  109DPPC   C2B 1306   4.465   5.507   1.975
  109DPPC   C3B 1307   4.237   5.580   1.757
  109DPPC   C4B 1308   4.161   5.549   1.407
  110DPPC   NC3 1309   1.202   0.375  -0.321
  110DPPC   PO4 1310   1.362   0.572  -0.170
  110DPPC   GL1 1311   1.359   0.793   0.131
  110DPPC   GL2 1312   1.539   0.971   0.026
  110DPPC   C1A 1313   1.318   1.029   0.458
  110DPPC   C2A 1314   1.439   1.210   0.645
  110DPPC   C3A 1315   1.533   1.338   0.885
  110DPPC   C4A 1316   1.618   1.565   1.130
  110DPPC   C1B 1317   1.773   1.154   0.168
  110DPPC   C2B 1318   1.722   1.450   0.311
  110DPPC   C3B 1319   1.864   1.565   0.578
  110DPPC   C4B 1320   1.870   1.854   0.792
  111DPPC   NC3 1321   0.300   6.487   6.960
  111DPPC   PO4 1322   0.386   6.215   7.035
  111DPPC   GL1 1323   0.594   6.024   7.280
  111DPPC   GL2 1324   0.634   5.812   7.110
  111DPPC   C1A 1325   0.837   5.848   7.553
  111DPPC   C2A 1326   0.934   5.607   7.674
  111DPPC   C3A 1327   1.006   5.401   7.862
  111DPPC   C4A 1328   1.166   5.150   8.035
  111DPPC   C1B 1329   0.667   5.490   7.167
  111DPPC   C2B 1330   0.951   5.339   7.252
  111DPPC   C3B 1331   0.988   5.095   7.460
  111DPPC   C4B 1332   1.240   4.884   7.606
  112DPPC   NC3 1333   3.104   0.739   1.024
  112DPPC   PO4 1334   2.873   0.638   1.178
  112DPPC   GL1 1335   2.632   0.354   1.205
  112DPPC   GL2 1336   2.437   0.505   1.327
  112DPPC   C1A 1337   2.379   0.037   1.199
  112DPPC   C2A 1338   2.167  -0.108   1.328
  112DPPC   C3A 1339   2.008  -0.315   1.450
  112DPPC   C4A 1340   1.751  -0.523   1.548
  112DPPC   C1B 1341   2.211   0.429   1.552
  112DPPC   C2B 1342   1.915   0.292   1.487
  112DPPC   C3B 1343   1.759   0.070   1.663
  112DPPC   C4B 1344   1.457  -0.124   1.669
  113DPPC   NC3 1345   0.043   1.019   3.223
  113DPPC   PO4 1346   0.272   1.161   3.342
  113DPPC   GL1 1347   0.633   1.240   3.295
  113DPPC   GL2 1348   0.680   1.277   3.563
  113DPPC   C1A 1349   1.028   1.296   3.220
  113DPPC   C2A 1350   1.272   1.431   3.288
  113DPPC   C3A 1351   1.514   1.587   3.278
  113DPPC   C4A 1352   1.835   1.706   3.318
  113DPPC   C1B 1353   0.885   1.480   3.723
  113DPPC   C2B 1354   1.206   1.418   3.783
  113DPPC   C3B 1355   1.450   1.629   3.777
  113DPPC   C4B 1356   1.806   1.651   3.824
  114DPPC   NC3 1357   6.465   4.512  -0.660
  114DPPC   PO4 1358   6.348   4.539  -0.391
  114DPPC   GL1 1359   6.398   4.699  -0.057
  114DPPC   GL2 1360   6.252   4.509   0.078
  114DPPC   C1A 1361   6.489   4.877   0.296
  114DPPC   C2A 1362   6.408   4.946   0.562
  114DPPC   C3A 1363   6.345   5.090   0.803
  114DPPC   C4A 1364   6.309   5.191   1.131
  114DPPC   C1B 1365   6.060   4.530   0.344
  114DPPC   C2B 1366   6.168   4.519   0.658
  114DPPC   C3B 1367   6.056   4.689   0.909
  114DPPC   C4B 1368   6.108   4.740   1.261
  115DPPC   NC3 1369   3.218   1.146   7.773
  115DPPC   PO4 1370   3.470   1.277   7.694
  115DPPC   GL1 1371   3.693   1.347   7.403
  115DPPC   GL2 1372   3.918   1.373   7.557
  115DPPC   C1A 1373   3.917   1.396   7.069
  115DPPC   C2A 1374   4.143   1.521   6.942
  115DPPC   C3A 1375   4.312   1.670   6.764
  115DPPC   C4A 1376   4.570   1.779   6.563
  115DPPC   C1B 1377   4.185   1.564   7.524
  115DPPC   C2B 1378   4.449   1.491   7.336
  115DPPC   C3B 1379   4.626   1.695   7.159
  115DPPC   C4B 1380   4.909   1.706   6.938
  116DPPC   NC3 1381   2.810  -0.104   4.093
  116DPPC   PO4 1382   2.584  -0.052   4.276
  116DPPC   GL1 1383   2.422   0.212   4.483
  116DPPC   GL2 1384   2.308   0.033   4.657
  116DPPC   C1A 1385   2.277   0.518   4.707
  116DPPC   C2A 1386   2.067   0.621   4.874
  116DPPC   C3A 1387   1.858   0.782   4.987
  116DPPC   C4A 1388   1.648   0.954   5.199
  116DPPC   C1B 1389   2.023   0.040   4.823
  116DPPC   C2B 1390   1.976   0.193   5.115
  116DPPC   C3B 1391   1.713   0.353   5.211
  116DPPC   C4B 1392   1.582   0.539   5.489
  117DPPC   NC3 1393   2.471   4.383   2.166
  117DPPC   PO4 1394   2.630   4.602   2.283
  117DPPC   GL1 1395   2.656   4.830   2.577
  117DPPC   GL2 1396   2.790   5.025   2.439
  117DPPC   C1A 1397   2.647   5.069   2.904
  117DPPC   C2A 1398   2.778   5.269   3.064
  117DPPC   C3A 1399   2.898   5.415   3.281
  117DPPC   C4A 1400   2.998   5.657   3.504
  117DPPC   C1B 1401   3.022   5.239   2.534
  117DPPC   C2B 1402   2.963   5.531   2.681
  117DPPC   C3B 1403   3.136   5.670   2.916
  117DPPC   C4B 1404   3.147   5.963   3.123
  118DPPC   NC3 1405   3.219   3.075   3.065
  118DPPC   PO4 1406   3.129   3.081   3.346
  118DPPC   GL1 1407   3.179   2.921   3.679
  118DPPC   GL2 1408   2.927   2.984   3.769
  118DPPC   C1A 1409   3.249   2.718   4.024
  118DPPC   C2A 1410   3.207   2.697   4.307
  118DPPC   C3A 1411   3.245   2.675   4.592
  118DPPC   C4A 1412   3.223   2.591   4.925
  118DPPC   C1B 1413   2.815   3.059   4.069
  118DPPC   C2B 1414   2.728   2.837   4.301
  118DPPC   C3B 1415   2.775   2.859   4.620
  118DPPC   C4B 1416   2.720   2.680   4.926
  119DPPC   NC3 1417   4.132   3.091   6.297
  119DPPC   PO4 1418   4.320   2.921   6.448
  119DPPC   GL1 1419   4.571   2.647   6.411
  119DPPC   GL2 1420   4.540   2.557   6.668
  119DPPC   C1A 1421   4.828   2.342   6.337
  119DPPC   C2A 1422   5.034   2.167   6.435
  119DPPC   C3A 1423   5.279   2.022   6.470
  119DPPC   C4A 1424   5.518   1.780   6.532
  119DPPC   C1B 1425   4.754   2.423   6.879
  119DPPC   C2B 1426   4.837   2.102   6.889
  119DPPC   C3B 1427   5.128   1.976   6.950
  119DPPC   C4B 1428   5.300   1.662   6.978
  120DPPC   NC3 1429   3.284   6.103   5.639
  120DPPC   PO4 1430   3.274   6.128   5.933
  120DPPC   GL1 1431   3.229   6.372   6.211
  120DPPC   GL2 1432   3.369   6.221   6.393
  120DPPC   C1A 1433   3.187   6.664   6.489
  120DPPC   C2A 1434   3.154   6.736   6.766
  120DPPC   C3A 1435   3.056   6.846   7.013
  120DPPC   C4A 1436   3.027   6.992   7.323
  120DPPC   C1B 1437   3.334   6.182   6.717
  120DPPC   C2B 1438   3.459   6.386   6.949
  120DPPC   C3B 1439   3.321   6.473   7.228
  120DPPC   C4B 1440   3.377   6.676   7.519
  121DPPC   NC3 1441   5.535   6.602   3.679
  121DPPC   PO4 1442   5.784   6.540   3.825
  121DPPC   GL1 1443   6.121   6.386   3.790
  121DPPC   GL2 1444   6.144   6.325   4.057
  121DPPC   C1A 1445   6.476   6.201   3.721
  121DPPC   C2A 1446   6.740   6.136   3.814
  121DPPC   C3A 1447   7.025   6.106   3.839
  121DPPC   C4A 1448   7.343   5.988   3.899
  121DPPC   C1B 1449   6.404   6.315   4.258
  121DPPC   C2B 1450   6.610   6.056   4.290
  121DPPC   C3B 1451   6.930   6.066   4.333
  121DPPC   C4B 1452   7.215   5.851   4.374
  122DPPC   NC3 1453   2.029   6.026   6.341
  122DPPC   PO4 1454   1.854   6.253   6.272
  122DPPC   GL1 1455   1.838   6.626   6.258
  122DPPC   GL2 1456   1.564   6.634   6.282
  122DPPC   C1A 1457   1.849   7.031   6.266
  122DPPC   C2A 1458   1.724   7.280   6.197
  122DPPC   C3A 1459   1.670   7.543   6.093
  122DPPC   C4A 1460   1.566   7.868   6.048
  122DPPC   C1B 1461   1.341   6.841   6.157
  122DPPC   C2B 1462   1.256   7.134   6.291
  122DPPC   C3B 1463   1.185   7.407   6.134
  122DPPC   C4B 1464   1.091   7.749   6.191
  123DPPC   NC3 1465   5.678   3.979   2.438
  123DPPC   PO4 1466   5.427   4.096   2.337
  123DPPC   GL1 1467   5.067   4.150   2.419
  123DPPC   GL2 1468   4.988   4.167   2.157
  123DPPC   C1A 1469   4.679   4.182   2.535
  123DPPC   C2A 1470   4.419   4.293   2.488
  123DPPC   C3A 1471   4.167   4.430   2.516
  123DPPC   C4A 1472   3.836   4.522   2.506
  123DPPC   C1B 1473   4.752   4.342   2.010
  123DPPC   C2B 1474   4.432   4.253   1.990
  123DPPC   C3B 1475   4.174   4.445   2.011
  123DPPC   C4B 1476   3.815   4.437   2.003
  124DPPC   NC3 1477   6.768   4.233   5.450
  124DPPC   PO4 1478   6.879   4.102   5.690
  124DPPC   GL1 1479   7.016   3.781   5.820
  124DPPC   GL2 1480   6.948   3.833   6.080
  124DPPC   C1A 1481   7.150   3.414   5.931
  124DPPC   C2A 1482   7.277   3.251   6.130
  124DPPC   C3A 1483   7.453   3.071   6.269
  124DPPC   C4A 1484   7.588   2.825   6.470
  124DPPC   C1B 1485   7.094   3.754   6.364
  124DPPC   C2B 1486   7.056   3.465   6.524
  124DPPC   C3B 1487   7.282   3.300   6.686
  124DPPC   C4B 1488   7.329   2.998   6.875
  125DPPC   NC3 1489   0.858   6.248   0.678
  125DPPC   PO4 1490   1.105   6.189   0.528
  125DPPC   GL1 1491   1.475   6.241   0.527
  125DPPC   GL2 1492   1.498   6.214   0.255
  125DPPC   C1A 1493   1.871   6.325   0.550
  125DPPC   C2A 1494   2.136   6.280   0.450
  125DPPC   C3A 1495   2.416   6.218   0.426
  125DPPC   C4A 1496   2.751   6.214   0.344
  125DPPC   C1B 1497   1.738   6.089   0.067
  125DPPC   C2B 1498   2.008   6.256  -0.032
  125DPPC   C3B 1499   2.309   6.141  -0.061
  125DPPC   C4B 1500   2.641   6.241  -0.154
  126DPPC   NC3 1501   6.728   0.980   4.650
  126DPPC   PO4 1502   6.663   0.701   4.579
  126DPPC   GL1 1503   6.536   0.484   4.303
  126DPPC   GL2 1504   6.442   0.290   4.473
  126DPPC   C1A 1505   6.385   0.280   3.987
  126DPPC   C2A 1506   6.324   0.026   3.868
  126DPPC   C3A 1507   6.308  -0.199   3.688
  126DPPC   C4A 1508   6.204  -0.467   3.500
  126DPPC   C1B 1509   6.421  -0.037   4.440
  126DPPC   C2B 1510   6.173  -0.198   4.288
  126DPPC   C3B 1511   6.196  -0.462   4.104
  126DPPC   C4B 1512   5.997  -0.690   3.910
  127DPPC   NC3 1513   6.306   4.655   4.706
  127DPPC   PO4 1514   6.556   4.773   4.602
  127DPPC   GL1 1515   6.829   5.015   4.681
  127DPPC   GL2 1516   6.889   5.064   4.418
  127DPPC   C1A 1517   7.102   5.292   4.794
  127DPPC   C2A 1518   7.354   5.421   4.744
  127DPPC   C3A 1519   7.621   5.526   4.769
  127DPPC   C4A 1520   7.904   5.721   4.756
  127DPPC   C1B 1521   7.173   5.133   4.269
  127DPPC   C2B 1522   7.309   5.436   4.247
  127DPPC   C3B 1523   7.623   5.511   4.264
  127DPPC   C4B 1524   7.847   5.792   4.254
  128DPPC   NC3 1525   2.377   3.970   2.941
  128DPPC   PO4 1526   2.384   4.213   2.773
  128DPPC   GL1 1527   2.252   4.560   2.743
  128DPPC   GL2 1528   2.282   4.570   2.471
  128DPPC   C1A 1529   2.080   4.928   2.735
  128DPPC   C2A 1530   2.068   5.189   2.615
  128DPPC   C3A 1531   2.068   5.473   2.571
  128DPPC   C4A 1532   2.000   5.794   2.464
  128DPPC   C1B 1533   2.356   4.818   2.268
  128DPPC   C2B 1534   2.137   5.036   2.145
  128DPPC   C3B 1535   2.183   5.352   2.095
  128DPPC   C4B 1536   2.015   5.646   1.976
  129W        W 1537   1.477   3.201   3.141
  130W        W 1538   0.888   0.042   2.906
  131W        W 1539   3.336   2.112   2.620
  132W        W 1540   1.085   1.718   3.011
  133W        W 1541   2.093   2.634   2.844
  134W        W 1542   0.071   1.258   3.570
  135W        W 1543   1.011   2.633   2.166
  136W        W 1544   1.604   3.277   2.177
  137W        W 1545   2.725   1.769   1.205
  138W        W 1546   1.705   0.931   1.571
  139W        W 1547   3.176   1.809   0.987
  140W        W 1548   1.691   3.234   0.544
  141W        W 1549   3.521   0.117   1.661
  142W        W 1550   0.740   1.989   0.129
  143W        W 1551   1.846   0.962   0.748
  144W        W 1552   3.619   2.869   1.252
  145W        W 1553   1.123   2.127   2.515
  146W        W 1554   2.204   1.881   0.997
  147W        W 1555   2.190   0.441   2.113
  148W        W 1556   1.838   0.626   3.276
  149W        W 1557   2.792   0.717   2.965
  150W        W 1558   3.361   0.619   1.642
  151W        W 1559   3.508   0.184   2.489
  152W        W 1560   1.953   1.396   3.043
  153W        W 1561   2.046   2.735   0.746
  154W        W 1562   2.120   0.006   1.795
  155W        W 1563   1.976   3.246   2.977
  156W        W 1564   1.972   1.020   2.023
  157W        W 1565   2.920   3.091   0.892
  158W        W 1566   2.754   2.694   1.688
  159W        W 1567   2.964   1.771   1.719
  160W        W 1568   3.117   1.838   2.970
  161W        W 1569   3.468   3.456   2.116
  162W        W 1570   1.398   2.900   1.518
  163W        W 1571   0.077   1.065   2.472
  164W        W 1572   1.708   0.135   2.166
  165W        W 1573   1.764   2.350   3.078
  166W        W 1574   1.720   1.862   0.352
  167W        W 1575   0.988   0.177   0.122
  168W        W 1576   1.726   1.258   1.173
  169W        W 1577   2.705   2.058   3.091
  170W        W 1578   0.637   0.770   1.387
  171W        W 1579   0.487   2.643   2.392
  172W        W 1580   3.221   3.164   0.465
  173W        W 1581   2.455   2.483   3.226
  174W        W 1582   1.223   2.472   1.673
  175W        W 1583   0.370   1.177   1.556
  176W        W 1584   0.481   0.783   0.776
  177W        W 1585   3.052   0.471   2.392
  178W        W 1586   3.448   1.674   0.077
  179W        W 1587   3.610   0.430   3.465
  180W        W 1588   1.636   3.488   3.563
  181W        W 1589   1.855   0.115   3.084
  182W        W 1590   2.635   2.820   2.163
  183W        W 1591   0.167   2.858   3.141
  184W        W 1592   0.910   0.850   2.379
  185W        W 1593   0.880   0.198   1.489
  186W        W 1594   1.299   2.211   0.381
  187W        W 1595   3.011   3.593   1.100
  188W        W 1596   1.110   0.613   1.545
  189W        W 1597   0.879   2.106   1.635
  190W        W 1598   3.259   3.613   3.417
  191W        W 1599   0.267   1.599   0.265
  192W        W 1600   2.585   2.546   2.750
  193W        W 1601   0.531   3.425   3.112
  194W        W 1602   3.160   2.544   1.052
  195W        W 1603   1.282   2.323   0.890
  196W        W 1604   0.497   0.377   2.954
  197W        W 1605   0.551   1.523   1.003
  198W        W 1606   3.117   1.601   0.548
  199W        W 1607   0.246   1.650   3.374
  200W        W 1608   3.212   0.114   0.670
  201W        W 1609   2.886   1.058   2.475
  202W        W 1610   3.637   2.500   2.503
  203W        W 1611   3.555   0.487   2.064
  204W        W 1612   2.746   2.119   0.301
  205W        W 1613   1.169   1.974   3.511
  206W        W 1614   1.113   2.953   3.505
  207W        W 1615   0.779   3.290   2.545
  208W        W 1616   2.146   1.491   1.467
  209W        W 1617   2.751   1.569   2.732
  210W        W 1618   1.218   3.215   0.694
  211W        W 1619   2.500   0.118   0.124
  212W        W 1620   0.480   0.666   3.499
  213W        W 1621   0.211   1.266   0.832
  214W        W 1622   2.430   2.171   1.348
  215W        W 1623   3.573   0.024   1.141
  216W        W 1624   3.055   2.366   2.919
  217W        W 1625   2.709   3.067   0.386
  218W        W 1626   2.998   2.479   2.367
  219W        W 1627   1.639   1.110   3.319
  220W        W 1628   1.398   2.531   3.468
  221W        W 1629   0.745   1.509   0.104
  222W        W 1630   0.126   0.762   6.748
  223W        W 1631   0.888   0.042   6.550
  224W        W 1632   3.336   2.112   6.264
  225W        W 1633   1.085   1.718   6.655
  226W        W 1634   2.093   2.634   6.488
  227W        W 1635   3.474   2.416   5.100
  228W        W 1636   2.887   0.816   5.667
  229W        W 1637   0.697   0.329   6.115
  230W        W 1638   3.320   1.347   6.390
  231W        W 1639   1.899   2.601   6.016
  232W        W 1640   0.735   3.161   4.330
  233W        W 1641   0.350   2.884   5.318
  234W        W 1642   3.083   1.260   3.652
  235W        W 1643   0.897   2.590   6.296
  236W        W 1644   0.395   1.022   3.952
  237W        W 1645   0.457   2.978   4.746
  238W        W 1646   2.246   2.161   6.380
  239W        W 1647   1.123   2.127   6.159
  240W        W 1648   2.327   1.391   4.537
  241W        W 1649   2.204   1.881   4.641
  242W        W 1650   0.547   1.301   6.115
  243W        W 1651   2.190   0.441   5.757
  244W        W 1652   1.838   0.626   6.920
  245W        W 1653   2.193   0.775   4.098
  246W        W 1654   2.343   0.249   6.891
  247W        W 1655   3.004   0.850   4.600
  248W        W 1656   3.371   1.332   4.545
  249W        W 1657   1.114   3.549   7.016
  250W        W 1658   3.361   0.619   5.286
  251W        W 1659   3.508   0.184   6.133
  252W        W 1660   2.120   0.006   5.439
  253W        W 1661   0.732   0.909   5.502
  254W        W 1662   0.286   2.109   6.276
  255W        W 1663   3.339   0.899   5.854
  256W        W 1664   3.319   2.305   3.826
  257W        W 1665   1.755   2.134   6.222
  258W        W 1666   2.650   1.773   4.310
  259W        W 1667   0.339   0.786   5.787
  260W        W 1668   3.117   1.838   6.614
  261W        W 1669   2.399   0.763   6.250
  262W        W 1670   2.937   0.860   5.134
  263W        W 1671   3.348   1.011   6.911
  264W        W 1672   1.489   3.301   4.742
  265W        W 1673   1.764   2.350   6.722
  266W        W 1674   1.594   0.708   4.712
  267W        W 1675   2.950   0.305   5.140
  268W        W 1676   2.670   3.587   5.468
  269W        W 1677   0.942   0.498   4.664
  270W        W 1678   2.596   0.201   5.953
  271W        W 1679   1.726   1.258   4.817
  272W        W 1680   2.705   2.058   6.735
  273W        W 1681   0.637   0.770   5.031
  274W        W 1682   2.470   1.682   5.412
  275W        W 1683   2.750   1.481   5.811
  276W        W 1684   3.576   0.828   4.473
  277W        W 1685   0.054   3.489   4.268
  278W        W 1686   1.953   0.759   6.074
  279W        W 1687   2.196   1.817   4.123
  280W        W 1688   0.965   2.424   3.715
  281W        W 1689   3.059   0.285   5.606
  282W        W 1690   0.740   0.432   5.540
  283W        W 1691   0.894   2.478   6.817
  284W        W 1692   1.406   1.750   6.242
  285W        W 1693   3.560   1.919   4.181
  286W        W 1694   2.897   3.551   3.975
  287W        W 1695   1.233   2.803   6.625
  288W        W 1696   2.809   2.072   5.758
  289W        W 1697   1.059   0.488   6.425
  290W        W 1698   0.554   0.860   6.364
  291W        W 1699   0.910   0.850   6.023
  292W        W 1700   3.011   3.593   4.744
  293W        W 1701   1.110   0.613   5.189
  294W        W 1702   1.192   3.517   6.029
  295W        W 1703   1.474   1.393   6.531
  296W        W 1704   1.214   3.466   5.122
  297W        W 1705   0.764   1.336   6.582
  298W        W 1706   0.595   1.651   5.326
  299W        W 1707   0.889   2.590   4.975
  300W        W 1708   3.637   2.500   6.147
  301W        W 1709   0.094   3.317   5.084
  302W        W 1710   3.392   1.942   5.065
  303W        W 1711   2.041   3.640   6.157
  304W        W 1712   1.113   2.953   7.149
  305W        W 1713   0.964   0.750   4.163
  306W        W 1714   2.439   3.000   6.725
  307W        W 1715   3.524   3.407   3.790
  308W        W 1716   2.665   1.582   7.018
  309W        W 1717   1.008   1.863   5.727
  310W        W 1718   1.613   3.580   5.350
  311W        W 1719   2.411   3.191   5.398
  312W        W 1720   3.573   0.024   4.785
  313W        W 1721   3.427   0.996   4.938
  314W        W 1722   3.055   2.366   6.563
  315W        W 1723   2.336   0.771   6.831
  316W        W 1724   1.940   1.719   6.334
  317W        W 1725   2.761   2.060   6.231
  318W        W 1726   2.706   3.233   5.000
  319W        W 1727   1.708   2.953   6.323
  320W        W 1728   2.999   2.263   5.132
  321W        W 1729   0.618   3.058   5.753
  322W        W 1730   1.524   2.769   4.489
  323W        W 1731   3.165   5.862   0.652
  324W        W 1732   0.811   4.938   1.352
  325W        W 1733   1.477   6.845   3.141
  326W        W 1734   2.801   4.379   3.454
  327W        W 1735   0.167   4.171   2.579
  328W        W 1736   0.220   4.963   2.025
  329W        W 1737   3.336   5.756   2.620
  330W        W 1738   1.644   5.089   1.647
  331W        W 1739   0.049   5.390   1.819
  332W        W 1740   0.071   4.902   3.570
  333W        W 1741   0.484   4.019   1.167
  334W        W 1742   2.887   4.460   2.023
  335W        W 1743   3.378   6.387   0.615
  336W        W 1744   0.697   3.973   2.471
  337W        W 1745   2.725   5.413   1.205
  338W        W 1746   2.691   5.101   0.232
  339W        W 1747   2.892   4.911   1.759
  340W        W 1748   1.270   5.594   1.271
  341W        W 1749   1.292   3.999   2.364
  342W        W 1750   3.619   6.513   1.252
  343W        W 1751   2.204   5.525   0.997
  344W        W 1752   2.190   4.085   2.113
  345W        W 1753   1.838   4.270   3.276
  346W        W 1754   2.343   3.893   3.247
  347W        W 1755   2.792   4.361   2.965
  348W        W 1756   3.371   4.976   0.901
  349W        W 1757   1.114   7.193   3.372
  350W        W 1758   3.361   4.263   1.642
  351W        W 1759   3.508   3.828   2.489
  352W        W 1760   1.953   5.040   3.043
  353W        W 1761   3.606   3.943   2.984
  354W        W 1762   2.824   4.962   0.861
  355W        W 1763   2.405   7.077   2.842
  356W        W 1764   3.303   4.069   1.133
  357W        W 1765   0.077   4.709   2.472
  358W        W 1766   2.233   6.354   1.485
  359W        W 1767   1.489   6.945   1.098
  360W        W 1768   0.604   4.125   0.356
  361W        W 1769   2.950   3.949   1.496
  362W        W 1770   0.947   4.370   0.045
  363W        W 1771   0.988   3.821   0.122
  364W        W 1772   0.423   7.126   1.063
  365W        W 1773   1.755   6.456   3.188
  366W        W 1774   0.790   5.941   0.547
  367W        W 1775   3.221   6.808   0.465
  368W        W 1776   1.039   4.652   0.996
  369W        W 1777   2.455   6.127   3.226
  370W        W 1778   0.138   3.881   0.291
  371W        W 1779   1.424   6.200   2.581
  372W        W 1780   0.710   5.379   3.281
  373W        W 1781   0.370   4.821   1.556
  374W        W 1782   0.159   5.711   0.047
  375W        W 1783   3.572   5.363   2.851
  376W        W 1784   3.560   5.563   0.537
  377W        W 1785   2.423   5.895   0.636
  378W        W 1786   0.404   6.152   3.513
  379W        W 1787   1.636   7.132   3.563
  380W        W 1788   3.030   6.360   0.233
  381W        W 1789   1.233   6.447   2.981
  382W        W 1790   3.359   4.438   2.779
  383W        W 1791   2.570   7.097   0.747
  384W        W 1792   1.059   4.132   2.781
  385W        W 1793   2.786   5.878   0.996
  386W        W 1794   0.554   4.504   2.720
  387W        W 1795   0.880   3.842   1.489
  388W        W 1796   1.299   5.855   0.381
  389W        W 1797   3.297   5.797   1.880
  390W        W 1798   3.011   7.237   1.100
  391W        W 1799   0.879   5.750   1.635
  392W        W 1800   3.083   6.546   1.442
  393W        W 1801   1.214   7.110   1.478
  394W        W 1802   0.643   6.430   0.242
  395W        W 1803   0.764   4.980   2.938
  396W        W 1804   3.537   4.910   0.419
  397W        W 1805   1.282   5.967   0.890
  398W        W 1806   0.008   6.617   2.674
  399W        W 1807   3.117   5.245   0.548
  400W        W 1808   2.648   6.370   1.197
  401W        W 1809   3.212   3.758   0.670
  402W        W 1810   0.518   3.765   3.529
  403W        W 1811   2.041   7.284   2.513
  404W        W 1812   1.365   4.134   0.662
  405W        W 1813   1.113   6.597   3.505
  406W        W 1814   0.964   4.394   0.519
  407W        W 1815   2.481   4.536   0.844
  408W        W 1816   1.124   5.236   1.680
  409W        W 1817   0.779   6.934   2.545
  410W        W 1818   0.387   5.723   3.142
  411W        W 1819   2.382   5.985   1.830
  412W        W 1820   1.189   6.641   2.467
  413W        W 1821   0.178   6.044   0.438
  414W        W 1822   3.398   5.641   3.317
  415W        W 1823   2.146   5.135   1.467
  416W        W 1824   0.972   6.731   1.194
  417W        W 1825   2.050   6.027   1.154
  418W        W 1826   0.287   4.188   1.728
  419W        W 1827   2.628   4.599   0.304
  420W        W 1828   2.497   4.780   3.500
  421W        W 1829   0.480   4.310   3.499
  422W        W 1830   0.211   4.910   0.832
  423W        W 1831   1.008   5.507   2.083
  424W        W 1832   3.573   3.668   1.141
  425W        W 1833   2.119   5.810   0.171
  426W        W 1834   1.193   6.952   1.948
  427W        W 1835   1.477   6.845   6.785
  428W        W 1836   2.231   4.945   4.007
  429W        W 1837   2.190   6.428   5.660
  430W        W 1838   0.690   5.862   5.892
  431W        W 1839   2.093   6.278   6.488
  432W        W 1840   3.637   5.214   6.068
  433W        W 1841   0.697   3.973   6.115
  434W        W 1842   3.320   4.991   6.390
  435W        W 1843   0.735   6.805   4.330
  436W        W 1844   0.897   6.234   6.296
  437W        W 1845   1.292   3.999   6.008
  438W        W 1846   0.457   6.622   4.746
  439W        W 1847   1.588   6.105   4.994
  440W        W 1848   2.920   6.964   6.708
  441W        W 1849   1.846   4.606   4.392
  442W        W 1850   3.229   7.004   5.164
  443W        W 1851   2.246   5.805   6.380
  444W        W 1852   1.114   7.193   7.016
  445W        W 1853   3.508   3.828   6.133
  446W        W 1854   2.754   6.338   5.332
  447W        W 1855   2.964   5.415   5.363
  448W        W 1856   2.233   6.354   5.129
  449W        W 1857   1.489   6.945   4.742
  450W        W 1858   1.594   4.352   4.712
  451W        W 1859   1.464   6.439   5.624
  452W        W 1860   2.596   3.845   5.953
  453W        W 1861   2.705   5.702   6.735
  454W        W 1862   0.423   7.126   4.707
  455W        W 1863   2.750   5.125   5.811
  456W        W 1864   3.576   4.472   4.473
  457W        W 1865   1.316   6.426   3.923
  458W        W 1866   3.221   6.808   4.109
  459W        W 1867   1.424   6.200   6.225
  460W        W 1868   1.223   6.116   5.317
  461W        W 1869   0.206   6.309   4.483
  462W        W 1870   1.414   3.939   7.111
  463W        W 1871   2.123   4.081   6.467
  464W        W 1872   0.370   4.821   5.200
  465W        W 1873   3.059   3.929   5.606
  466W        W 1874   0.788   5.727   6.519
  467W        W 1875   1.636   7.132   7.207
  468W        W 1876   3.030   6.360   3.877
  469W        W 1877   3.359   4.438   6.423
  470W        W 1878   2.809   5.716   5.758
  471W        W 1879   2.786   5.878   4.640
  472W        W 1880   1.299   5.855   4.025
  473W        W 1881   0.624   6.555   6.947
  474W        W 1882   1.110   4.257   5.189
  475W        W 1883   2.418   5.445   5.994
  476W        W 1884   2.585   6.190   6.394
  477W        W 1885   3.160   6.188   4.696
  478W        W 1886   1.282   5.967   4.534
  479W        W 1887   3.042   7.237   6.017
  480W        W 1888   0.497   4.021   6.598
  481W        W 1889   0.008   6.617   6.318
  482W        W 1890   3.212   3.758   4.314
  483W        W 1891   2.886   4.702   6.119
  484W        W 1892   2.652   4.854   4.940
  485W        W 1893   3.555   4.131   5.708
  486W        W 1894   2.746   5.763   3.945
  487W        W 1895   1.713   3.716   4.474
  488W        W 1896   2.426   4.585   5.333
  489W        W 1897   0.112   6.172   5.665
  490W        W 1898   2.163   4.599   4.869
  491W        W 1899   2.368   6.009   5.991
  492W        W 1900   0.522   6.614   6.426
  493W        W 1901   1.124   5.236   5.324
  494W        W 1902   0.818   5.634   4.716
  495W        W 1903   0.178   6.044   4.082
  496W        W 1904   1.697   4.995   3.952
  497W        W 1905   3.305   3.895   3.862
  498W        W 1906   0.757   7.246   5.724
  499W        W 1907   3.616   5.868   4.598
  500W        W 1908   1.913   3.747   5.001
  501W        W 1909   2.050   6.027   4.798
  502W        W 1910   0.087   4.007   4.449
  503W        W 1911   0.211   4.910   4.476
  504W        W 1912   2.482   3.793   4.847
  505W        W 1913   1.613   7.224   5.350
  506W        W 1914   2.411   6.835   5.398
  507W        W 1915   0.180   4.886   6.608
  508W        W 1916   0.297   6.121   4.991
  509W        W 1917   0.444   5.418   5.881
  510W        W 1918   2.533   7.084   7.042
  511W        W 1919   2.429   4.823   6.595
  512W        W 1920   2.706   6.877   5.000
  513W        W 1921   0.653   6.148   5.487
  514W        W 1922   2.640   6.973   5.883
  515W        W 1923   1.524   6.413   4.489
  516W        W 1924   4.857   3.294   0.205
  517W        W 1925   4.757   1.210   3.262
  518W        W 1926   7.216   1.069   1.761
  519W        W 1927   5.288   1.445   1.647
  520W        W 1928   5.834   2.784   2.016
  521W        W 1929   7.000   1.501   3.265
  522W        W 1930   6.246   2.831   3.560
  523W        W 1931   5.325   2.151   3.570
  524W        W 1932   5.306   1.867   3.048
  525W        W 1933   7.118   2.416   1.456
  526W        W 1934   6.531   0.816   2.023
  527W        W 1935   6.816   0.769   0.118
  528W        W 1936   5.248   3.277   2.177
  529W        W 1937   5.335   3.234   0.544
  530W        W 1938   6.727   1.260   0.008
  531W        W 1939   4.914   1.950   1.271
  532W        W 1940   4.384   1.989   0.129
  533W        W 1941   4.101   2.978   1.102
  534W        W 1942   7.006   2.550   3.369
  535W        W 1943   6.436   0.717   2.965
  536W        W 1944   6.629   1.789   3.639
  537W        W 1945   4.369   3.365   1.625
  538W        W 1946   5.027   1.082   0.611
  539W        W 1947   4.596   0.366   3.275
  540W        W 1948   6.648   0.850   0.956
  541W        W 1949   4.758   3.549   3.372
  542W        W 1950   5.690   2.735   0.746
  543W        W 1951   6.090   2.029   3.486
  544W        W 1952   4.376   0.909   1.858
  545W        W 1953   6.755   1.051   0.503
  546W        W 1954   7.112   3.456   2.116
  547W        W 1955   6.947   0.425   1.133
  548W        W 1956   3.721   1.065   2.472
  549W        W 1957   6.992   1.011   3.267
  550W        W 1958   5.877   2.710   1.485
  551W        W 1959   5.408   2.350   3.078
  552W        W 1960   5.238   0.708   1.068
  553W        W 1961   5.122   2.272   2.125
  554W        W 1962   6.892   2.995   2.251
  555W        W 1963   4.591   0.726   0.045
  556W        W 1964   5.392   1.335   2.439
  557W        W 1965   5.370   1.258   1.173
  558W        W 1966   5.732   2.028   3.198
  559W        W 1967   6.349   2.058   3.091
  560W        W 1968   6.069   2.529   0.233
  561W        W 1969   4.960   2.782   0.279
  562W        W 1970   6.452   0.389   0.843
  563W        W 1971   5.058   0.295   3.467
  564W        W 1972   4.962   0.205   1.104
  565W        W 1973   3.966   0.214   2.186
  566W        W 1974   4.014   1.177   1.556
  567W        W 1975   6.703   0.285   1.962
  568W        W 1976   7.092   1.674   0.077
  569W        W 1977   4.384   0.432   1.896
  570W        W 1978   3.646   0.694   0.314
  571W        W 1979   5.790   1.481   2.054
  572W        W 1980   3.803   2.067   0.047
  573W        W 1981   6.818   0.109   2.860
  574W        W 1982   4.443   0.809   3.119
  575W        W 1983   7.003   0.794   2.779
  576W        W 1984   7.277   1.482   1.365
  577W        W 1985   4.554   0.850   2.379
  578W        W 1986   4.943   2.211   0.381
  579W        W 1987   6.882   0.581   0.581
  580W        W 1988   4.858   3.466   1.478
  581W        W 1989   4.476   1.705   2.544
  582W        W 1990   6.686   3.593   2.373
  583W        W 1991   3.652   2.973   2.674
  584W        W 1992   4.195   1.523   1.003
  585W        W 1993   3.966   3.375   2.440
  586W        W 1994   6.761   1.601   0.548
  587W        W 1995   6.465   0.451   0.289
  588W        W 1996   7.199   0.487   2.064
  589W        W 1997   3.738   3.317   1.440
  590W        W 1998   5.357   0.072   0.830
  591W        W 1999   6.070   0.941   1.689
  592W        W 2000   5.807   0.955   1.225
  593W        W 2001   7.168   3.407   0.146
  594W        W 2002   4.031   2.079   3.142
  595W        W 2003   6.026   2.341   1.830
  596W        W 2004   5.696   3.254   3.469
  597W        W 2005   6.662   3.146   3.602
  598W        W 2006   4.815   0.197   1.888
  599W        W 2007   3.931   0.544   1.728
  600W        W 2008   5.479   2.509   1.785
  601W        W 2009   3.731   0.363   0.805
  602W        W 2010   6.272   0.955   0.304
  603W        W 2011   6.141   1.136   3.500
  604W        W 2012   4.124   0.666   3.499
  605W        W 2013   4.546   1.255   0.557
  606W        W 2014   6.126   0.149   1.203
  607W        W 2015   5.257   3.580   1.706
  608W        W 2016   7.217   0.024   1.141
  609W        W 2017   4.905   1.659   0.304
  610W        W 2018   5.763   2.166   0.171
  611W        W 2019   3.824   1.242   2.964
  612W        W 2020   4.088   1.774   2.237
  613W        W 2021   6.405   2.060   2.587
  614W        W 2022   4.837   3.308   1.948
  615W        W 2023   6.642   2.479   2.367
  616W        W 2024   4.297   2.504   1.843
  617W        W 2025   5.283   1.110   3.319
  618W        W 2026   5.734   3.276   0.830
  619W        W 2027   3.728   3.595   7.003
  620W        W 2028   4.455   1.294   4.996
  621W        W 2029   5.432   2.536   3.976
  622W        W 2030   3.864   1.319   5.669
  623W        W 2031   5.325   2.151   7.214
  624W        W 2032   6.547   2.793   6.813
  625W        W 2033   6.816   0.769   3.762
  626W        W 2034   4.151   3.529   4.013
  627W        W 2035   6.964   1.347   6.390
  628W        W 2036   6.335   1.457   3.876
  629W        W 2037   5.349   0.931   5.215
  630W        W 2038   4.379   3.161   4.330
  631W        W 2039   3.750   0.660   4.929
  632W        W 2040   6.536   1.267   5.403
  633W        W 2041   4.384   1.989   3.773
  634W        W 2042   5.232   2.461   4.994
  635W        W 2043   5.490   0.962   4.392
  636W        W 2044   4.066   0.094   5.196
  637W        W 2045   4.369   3.365   5.269
  638W        W 2046   7.015   1.332   4.545
  639W        W 2047   4.376   0.909   5.502
  640W        W 2048   6.963   2.305   3.826
  641W        W 2049   7.250   0.299   6.628
  642W        W 2050   6.761   1.838   6.614
  643W        W 2051   6.992   1.011   6.911
  644W        W 2052   5.877   2.710   5.129
  645W        W 2053   4.754   1.721   4.409
  646W        W 2054   6.314   3.587   5.468
  647W        W 2055   5.122   2.272   5.769
  648W        W 2056   4.586   0.498   4.664
  649W        W 2057   5.108   2.795   5.624
  650W        W 2058   3.660   2.044   5.838
  651W        W 2059   6.340   0.234   6.516
  652W        W 2060   6.069   2.529   3.877
  653W        W 2061   3.714   3.417   6.504
  654W        W 2062   4.960   2.782   3.923
  655W        W 2063   5.515   0.918   3.692
  656W        W 2064   4.867   2.472   5.317
  657W        W 2065   4.609   2.424   3.715
  658W        W 2066   5.058   0.295   7.111
  659W        W 2067   3.966   0.214   5.830
  660W        W 2068   4.125   0.783   4.420
  661W        W 2069   7.092   1.674   3.721
  662W        W 2070   4.384   0.432   5.540
  663W        W 2071   5.498   1.004   6.480
  664W        W 2072   3.646   0.694   3.958
  665W        W 2073   4.432   2.083   6.519
  666W        W 2074   5.790   1.481   5.698
  667W        W 2075   6.818   0.109   6.504
  668W        W 2076   7.204   1.919   4.181
  669W        W 2077   7.254   0.430   7.109
  670W        W 2078   6.214   3.453   4.391
  671W        W 2079   4.703   0.488   6.425
  672W        W 2080   6.582   3.164   5.515
  673W        W 2081   6.655   3.593   4.744
  674W        W 2082   4.523   2.106   5.279
  675W        W 2083   6.903   3.613   7.061
  676W        W 2084   3.911   1.599   3.909
  677W        W 2085   6.229   2.546   6.394
  678W        W 2086   4.175   3.425   6.756
  679W        W 2087   7.181   1.266   4.063
  680W        W 2088   6.477   0.227   7.011
  681W        W 2089   4.141   0.377   6.598
  682W        W 2090   5.237   1.682   5.761
  683W        W 2091   6.761   1.601   4.192
  684W        W 2092   6.292   2.726   4.841
  685W        W 2093   6.530   1.058   6.119
  686W        W 2094   4.239   1.651   5.326
  687W        W 2095   4.533   2.590   4.975
  688W        W 2096   5.319   0.589   5.636
  689W        W 2097   5.281   2.974   7.275
  690W        W 2098   5.357   0.072   4.474
  691W        W 2099   5.009   0.490   4.306
  692W        W 2100   4.608   0.750   4.163
  693W        W 2101   6.125   0.892   4.488
  694W        W 2102   4.423   3.290   6.189
  695W        W 2103   6.026   2.341   5.474
  696W        W 2104   4.462   1.990   4.716
  697W        W 2105   5.211   0.416   5.152
  698W        W 2106   3.987   1.900   4.971
  699W        W 2107   5.696   3.254   7.113
  700W        W 2108   5.790   1.491   5.111
  701W        W 2109   5.557   0.103   5.001
  702W        W 2110   4.616   3.087   4.838
  703W        W 2111   4.815   0.197   5.532
  704W        W 2112   3.878   3.019   4.080
  705W        W 2113   5.694   2.383   4.798
  706W        W 2114   4.046   2.001   4.373
  707W        W 2115   3.931   0.544   5.372
  708W        W 2116   5.479   2.509   5.429
  709W        W 2117   6.141   1.136   7.144
  710W        W 2118   3.855   1.266   4.476
  711W        W 2119   6.126   0.149   4.847
  712W        W 2120   5.257   3.580   5.350
  713W        W 2121   7.217   0.024   4.785
  714W        W 2122   4.788   1.326   6.177
  715W        W 2123   6.405   2.060   6.231
  716W        W 2124   6.284   3.329   5.883
  717W        W 2125   4.262   3.058   5.753
  718W        W 2126   5.042   2.531   7.112
  719W        W 2127   6.809   5.862   0.652
  720W        W 2128   6.939   6.947   2.679
  721W        W 2129   4.857   6.938   0.205
  722W        W 2130   4.940   5.090   1.188
  723W        W 2131   5.121   6.845   3.141
  724W        W 2132   3.811   4.171   2.579
  725W        W 2133   5.288   5.089   1.647
  726W        W 2134   5.325   5.795   3.570
  727W        W 2135   6.547   6.437   3.169
  728W        W 2136   7.118   6.060   1.456
  729W        W 2137   5.543   6.245   2.372
  730W        W 2138   4.379   6.805   0.686
  731W        W 2139   3.750   4.304   1.285
  732W        W 2140   5.335   6.878   0.544
  733W        W 2141   4.914   5.594   1.271
  734W        W 2142   4.101   6.622   1.102
  735W        W 2143   3.656   5.356   0.942
  736W        W 2144   5.848   5.525   0.997
  737W        W 2145   5.834   4.085   2.113
  738W        W 2146   7.006   6.194   3.369
  739W        W 2147   6.236   4.299   1.235
  740W        W 2148   6.629   5.433   3.639
  741W        W 2149   6.648   4.494   0.956
  742W        W 2150   7.015   4.976   0.901
  743W        W 2151   7.005   4.263   1.642
  744W        W 2152   5.597   5.040   3.043
  745W        W 2153   6.963   5.949   0.182
  746W        W 2154   7.250   3.943   2.984
  747W        W 2155   6.608   5.415   1.719
  748W        W 2156   6.761   5.482   2.970
  749W        W 2157   5.877   6.354   1.485
  750W        W 2158   5.133   6.945   1.098
  751W        W 2159   6.594   3.949   1.496
  752W        W 2160   5.108   6.439   1.980
  753W        W 2161   6.240   3.845   2.309
  754W        W 2162   5.364   5.506   0.352
  755W        W 2163   6.349   5.702   3.091
  756W        W 2164   4.281   4.414   1.387
  757W        W 2165   6.069   6.173   0.233
  758W        W 2166   7.220   4.472   0.829
  759W        W 2167   4.960   6.426   0.279
  760W        W 2168   4.683   4.652   0.996
  761W        W 2169   6.021   3.926   0.609
  762W        W 2170   4.014   4.821   1.556
  763W        W 2171   6.703   3.929   1.962
  764W        W 2172   4.125   4.427   0.776
  765W        W 2173   3.803   5.711   0.047
  766W        W 2174   4.538   6.122   3.173
  767W        W 2175   6.541   7.195   0.331
  768W        W 2176   5.718   5.185   3.473
  769W        W 2177   4.048   6.152   3.513
  770W        W 2178   6.972   5.002   2.086
  771W        W 2179   5.135   3.761   0.290
  772W        W 2180   6.674   6.360   0.233
  773W        W 2181   4.877   6.447   2.981
  774W        W 2182   4.943   5.855   0.381
  775W        W 2183   6.655   7.237   1.100
  776W        W 2184   6.903   7.257   3.417
  777W        W 2185   3.911   5.243   0.265
  778W        W 2186   5.021   3.744   2.984
  779W        W 2187   5.118   5.037   2.887
  780W        W 2188   4.879   4.644   2.862
  781W        W 2189   4.858   7.110   1.478
  782W        W 2190   7.181   4.910   0.419
  783W        W 2191   6.025   5.349   2.971
  784W        W 2192   4.480   5.044   2.007
  785W        W 2193   3.652   6.617   2.674
  786W        W 2194   6.761   5.245   0.548
  787W        W 2195   6.292   6.370   1.197
  788W        W 2196   7.199   4.131   2.064
  789W        W 2197   3.738   6.961   1.440
  790W        W 2198   7.036   5.586   1.421
  791W        W 2199   6.012   6.009   2.347
  792W        W 2200   4.166   6.614   2.782
  793W        W 2201   6.083   6.644   3.081
  794W        W 2202   7.168   7.051   0.146
  795W        W 2203   4.031   5.723   3.142
  796W        W 2204   3.822   6.044   0.438
  797W        W 2205   5.341   4.995   0.308
  798W        W 2206   5.696   6.898   3.469
  799W        W 2207   5.557   3.747   1.357
  800W        W 2208   4.815   3.841   1.888
  801W        W 2209   3.878   6.663   0.436
  802W        W 2210   4.569   6.822   3.033
  803W        W 2211   6.789   6.271   1.952
  804W        W 2212   6.144   3.762   0.124
  805W        W 2213   3.944   7.022   1.865
  806W        W 2214   6.126   3.793   1.203
  807W        W 2215   5.257   7.224   1.706
  808W        W 2216   6.074   5.815   1.348
  809W        W 2217   6.699   6.010   2.919
  810W        W 2218   5.584   5.363   2.690
  811W        W 2219   4.088   5.418   2.237
  812W        W 2220   6.405   5.704   2.587
  813W        W 2221   5.352   6.597   2.679
  814W        W 2222   4.837   6.952   1.948
  815W        W 2223   6.284   6.973   2.239
  816W        W 2224   4.262   6.702   2.109
  817W        W 2225   4.104   6.132   6.526
  818W        W 2226   3.770   4.406   6.748
  819W        W 2227   3.864   4.963   5.669
  820W        W 2228   4.616   6.589   5.354
  821W        W 2229   4.128   4.019   4.811
  822W        W 2230   4.655   6.277   5.810
  823W        W 2231   7.022   6.387   4.259
  824W        W 2232   4.544   7.219   4.689
  825W        W 2233   4.341   3.973   6.115
  826W        W 2234   6.335   5.101   3.876
  827W        W 2235   3.750   4.304   4.929
  828W        W 2236   3.994   6.528   5.318
  829W        W 2237   3.750   6.662   5.816
  830W        W 2238   4.541   6.234   6.296
  831W        W 2239   4.384   5.633   3.773
  832W        W 2240   5.490   4.606   4.392
  833W        W 2241   6.550   4.857   6.762
  834W        W 2242   4.767   5.771   6.159
  835W        W 2243   5.837   4.419   4.098
  836W        W 2244   6.629   5.433   7.283
  837W        W 2245   5.027   4.726   4.255
  838W        W 2246   7.250   3.943   6.628
  839W        W 2247   5.616   4.664   5.667
  840W        W 2248   6.049   7.077   6.486
  841W        W 2249   6.043   4.407   6.250
  842W        W 2250   6.992   4.655   6.911
  843W        W 2251   5.408   5.994   6.722
  844W        W 2252   6.594   3.949   5.140
  845W        W 2253   5.108   6.439   5.624
  846W        W 2254   5.364   5.506   3.996
  847W        W 2255   4.131   6.287   6.036
  848W        W 2256   3.698   7.133   4.268
  849W        W 2257   6.865   6.808   4.109
  850W        W 2258   5.515   4.562   3.692
  851W        W 2259   4.609   6.068   3.715
  852W        W 2260   3.850   6.309   4.483
  853W        W 2261   4.354   5.379   6.925
  854W        W 2262   6.021   3.926   4.253
  855W        W 2263   4.384   4.076   5.540
  856W        W 2264   4.432   5.727   6.519
  857W        W 2265   3.803   5.711   3.691
  858W        W 2266   6.818   3.753   6.504
  859W        W 2267   6.067   5.895   4.280
  860W        W 2268   4.703   4.132   6.425
  861W        W 2269   4.198   4.504   6.364
  862W        W 2270   5.527   6.566   4.828
  863W        W 2271   3.811   6.502   6.785
  864W        W 2272   6.941   5.797   5.524
  865W        W 2273   4.268   6.555   6.947
  866W        W 2274   6.882   4.225   4.225
  867W        W 2275   6.804   6.188   4.696
  868W        W 2276   6.025   5.349   6.615
  869W        W 2277   5.916   4.977   6.159
  870W        W 2278   4.476   5.349   6.188
  871W        W 2279   6.686   7.237   6.017
  872W        W 2280   6.477   3.871   7.011
  873W        W 2281   6.465   4.095   3.933
  874W        W 2282   5.319   4.233   5.636
  875W        W 2283   7.036   5.586   5.065
  876W        W 2284   5.009   4.134   4.306
  877W        W 2285   5.807   4.599   4.869
  878W        W 2286   4.757   6.597   7.149
  879W        W 2287   7.168   7.051   3.790
  880W        W 2288   5.211   4.060   5.152
  881W        W 2289   3.822   6.044   4.082
  882W        W 2290   6.949   3.895   3.862
  883W        W 2291   7.042   5.641   6.961
  884W        W 2292   5.790   5.135   5.111
  885W        W 2293   5.115   4.472   6.063
  886W        W 2294   4.815   3.841   5.532
  887W        W 2295   5.694   6.027   4.798
  888W        W 2296   6.272   4.599   3.948
  889W        W 2297   6.789   6.271   5.596
  890W        W 2298   6.144   3.762   3.768
  891W        W 2299   6.126   3.793   4.847
  892W        W 2300   4.905   5.303   3.948
  893W        W 2301   6.353   6.711   4.030
  894W        W 2302   6.177   7.084   7.042
  895W        W 2303   5.352   6.597   6.323
  896W        W 2304   4.297   6.148   5.487
   7.50000   7.50000   7.50000
